<?xml version="1.0" encoding="UTF-8"?>

<!-- generated on 2025-05-21 06:44:58 by Eclipse SUMO sumo Version 1.21.0
<sumoConfiguration xmlns:xsi="http://www.w3.org/2001/XMLSchema-instance" xsi:noNamespaceSchemaLocation="http://sumo.dlr.de/xsd/sumoConfiguration.xsd">

    <input>
        <net-file value="smaller.net.xml"/>
        <route-files value="v5_dir_routes.rou.xml"/>
        <additional-files value="lane_emissions_output.add.xml"/>
    </input>

    <output>
        <tripinfo-output value="tripinfo-traci.xml"/>
    </output>

    <traci_server>
        <remote-port value="59594"/>
    </traci_server>

</sumoConfiguration>
-->

<meandata xmlns:xsi="http://www.w3.org/2001/XMLSchema-instance" xsi:noNamespaceSchemaLocation="http://sumo.dlr.de/xsd/meandata_file.xsd">
    <interval begin="0.00" end="3600.00" id="lane_emissions"/>
    <interval begin="3600.00" end="7200.00" id="lane_emissions"/>
    <interval begin="7200.00" end="10800.00" id="lane_emissions"/>
    <interval begin="10800.00" end="14400.00" id="lane_emissions"/>
    <interval begin="14400.00" end="18000.00" id="lane_emissions"/>
    <interval begin="18000.00" end="21600.00" id="lane_emissions"/>
    <interval begin="21600.00" end="25200.00" id="lane_emissions">
        <edge id="-1232571604">
            <lane id="-1232571604_0" sampledSeconds="301.08" CO_abs="16691.029426" CO2_abs="574612.190363" HC_abs="102.775663" PMx_abs="47.145584" NOx_abs="1596.153709" fuel_abs="182688.532081" electricity_abs="0"
            CO_normed="266.162166" CO2_normed="9163.007341" HC_normed="1.638904" PMx_normed="0.751803" NOx_normed="25.452937" fuel_normed="2913.228067" electricity_normed="0"
            traveltime="12.55" CO_perVeh="695.471538" CO2_perVeh="23942.586970" HC_perVeh="4.282393" PMx_perVeh="1.964433" NOx_perVeh="66.507550" fuel_perVeh="7612.153277" electricity_perVeh="0"/>
        </edge>
        <edge id="-29251749#0">
            <lane id="-29251749#0_0" sampledSeconds="53.79" CO_abs="7636.808845" CO2_abs="174658.090021" HC_abs="32.509951" PMx_abs="9.464417" NOx_abs="44.180003" fuel_abs="55714.357390" electricity_abs="0"
            CO_normed="216.401497" CO2_normed="4949.223293" HC_normed="0.921223" PMx_normed="0.268190" NOx_normed="1.251913" fuel_normed="1578.757648" electricity_normed="0"
            traveltime="6.44" CO_perVeh="913.848239" CO2_perVeh="20900.220396" HC_perVeh="3.890259" PMx_perVeh="1.132546" NOx_perVeh="5.286739" fuel_perVeh="6666.982036" electricity_perVeh="0"/>
        </edge>
        <edge id="-4922743#4">
            <lane id="-4922743#4_0" sampledSeconds="243.74" CO_abs="11510.392115" CO2_abs="681913.395265" HC_abs="112.747033" PMx_abs="59.668726" NOx_abs="2323.649866" fuel_abs="216665.078957" electricity_abs="0"
            CO_normed="192.610310" CO2_normed="11410.866721" HC_normed="1.886664" PMx_normed="0.998473" NOx_normed="38.883030" fuel_normed="3625.586997" electricity_normed="0"
            traveltime="8.12" CO_perVeh="383.679737" CO2_perVeh="22730.446509" HC_perVeh="3.758234" PMx_perVeh="1.988958" NOx_perVeh="77.454996" fuel_perVeh="7222.169299" electricity_perVeh="0"/>
        </edge>
        <edge id="-617654357#0">
            <lane id="-617654357#0_0" sampledSeconds="159.75" CO_abs="13418.369910" CO2_abs="368861.210592" HC_abs="101.880117" PMx_abs="35.396919" NOx_abs="1259.853127" fuel_abs="117270.958726" electricity_abs="0"
            CO_normed="1096.272051" CO2_normed="30135.719820" HC_normed="8.323539" PMx_normed="2.891905" NOx_normed="102.929177" fuel_normed="9580.960680" electricity_normed="0"
            traveltime="3.47" CO_perVeh="291.703694" CO2_perVeh="8018.721969" HC_perVeh="2.214785" PMx_perVeh="0.769498" NOx_perVeh="27.388111" fuel_perVeh="2549.368668" electricity_perVeh="0"/>
        </edge>
        <edge id="-617654357#1">
            <lane id="-617654357#1_0" sampledSeconds="320.80" CO_abs="33076.530710" CO2_abs="1681047.856587" HC_abs="428.201569" PMx_abs="186.282291" NOx_abs="6969.173126" fuel_abs="534087.926494" electricity_abs="0"
            CO_normed="797.024836" CO2_normed="40507.177267" HC_normed="10.318110" PMx_normed="4.488730" NOx_normed="167.931883" fuel_normed="12869.588590" electricity_normed="0"
            traveltime="7.91" CO_perVeh="815.418810" CO2_perVeh="41442.013810" HC_perVeh="10.556234" PMx_perVeh="4.592322" NOx_perVeh="171.807464" fuel_perVeh="13166.596738" electricity_perVeh="0"/>
        </edge>
        <edge id="237386421">
            <lane id="237386421_0" sampledSeconds="347.14" CO_abs="27447.747373" CO2_abs="800403.401563" HC_abs="154.327920" PMx_abs="64.558203" NOx_abs="2062.860789" fuel_abs="254545.590608" electricity_abs="0"
            CO_normed="437.693308" CO2_normed="12763.568834" HC_normed="2.460978" PMx_normed="1.029472" NOx_normed="32.895245" fuel_normed="4059.090904" electricity_normed="0"
            traveltime="14.85" CO_perVeh="1174.408206" CO2_perVeh="34246.902298" HC_perVeh="6.603237" PMx_perVeh="2.762255" NOx_perVeh="88.263733" fuel_perVeh="10891.255528" electricity_perVeh="0"/>
        </edge>
        <edge id="29251749#0">
            <lane id="29251749#0_0" sampledSeconds="260.17" CO_abs="10866.894730" CO2_abs="1100410.893772" HC_abs="281.391539" PMx_abs="141.050350" NOx_abs="5930.025256" fuel_abs="349056.947040" electricity_abs="0"
            CO_normed="307.234796" CO2_normed="31111.419106" HC_normed="7.955656" PMx_normed="3.987853" NOx_normed="167.656920" fuel_normed="9868.729065" electricity_normed="0"
            traveltime="4.65" CO_perVeh="194.051692" CO2_perVeh="19650.194532" HC_perVeh="5.024849" PMx_perVeh="2.518756" NOx_perVeh="105.893308" fuel_perVeh="6233.159769" electricity_perVeh="0"/>
        </edge>
        <edge id="4922743#4">
            <lane id="4922743#4_0" sampledSeconds="537.77" CO_abs="46956.902657" CO2_abs="2618377.234523" HC_abs="527.395183" PMx_abs="269.930708" NOx_abs="10811.119518" fuel_abs="831387.974465" electricity_abs="0"
            CO_normed="794.398624" CO2_normed="44296.688116" HC_normed="8.922267" PMx_normed="4.566583" NOx_normed="182.898317" fuel_normed="14065.098536" electricity_normed="0"
            traveltime="9.47" CO_perVeh="826.796557" CO2_perVeh="46103.238508" HC_perVeh="9.286143" PMx_perVeh="4.752822" NOx_perVeh="190.357453" fuel_perVeh="14638.714993" electricity_perVeh="0"/>
        </edge>
        <edge id="617654357#0">
            <lane id="617654357#0_0" sampledSeconds="52.34" CO_abs="5468.271339" CO2_abs="189330.655052" HC_abs="26.681860" PMx_abs="6.316112" NOx_abs="62.848602" fuel_abs="60391.497959" electricity_abs="0"
            CO_normed="445.298969" CO2_normed="15417.805786" HC_normed="2.172790" PMx_normed="0.514341" NOx_normed="5.117964" fuel_normed="4917.874427" electricity_normed="0"
            traveltime="1.74" CO_perVeh="182.275711" CO2_perVeh="6311.021835" HC_perVeh="0.889395" PMx_perVeh="0.210537" NOx_perVeh="2.094953" fuel_perVeh="2013.049932" electricity_perVeh="0"/>
        </edge>
        <edge id="617654357#1">
            <lane id="617654357#1_0" sampledSeconds="160.43" CO_abs="6445.054392" CO2_abs="276934.290924" HC_abs="32.189945" PMx_abs="6.480879" NOx_abs="88.809679" fuel_abs="88334.760310" electricity_abs="0"
            CO_normed="155.302515" CO2_normed="6673.115444" HC_normed="0.775661" PMx_normed="0.156166" NOx_normed="2.139992" fuel_normed="2128.548441" electricity_normed="0"
            traveltime="5.35" CO_perVeh="214.842459" CO2_perVeh="9231.457262" HC_perVeh="1.073035" PMx_perVeh="0.216037" NOx_perVeh="2.960423" fuel_perVeh="2944.592242" electricity_perVeh="0"/>
        </edge>
    </interval>
    <interval begin="25200.00" end="28800.00" id="lane_emissions">
        <edge id="-1232571604">
            <lane id="-1232571604_0" sampledSeconds="1131.87" CO_abs="61939.528124" CO2_abs="2094825.015664" HC_abs="323.196848" PMx_abs="147.733814" NOx_abs="5107.634169" fuel_abs="666143.676640" electricity_abs="0"
            CO_normed="987.713732" CO2_normed="33404.959586" HC_normed="5.153833" PMx_normed="2.355825" NOx_normed="81.448480" fuel_normed="10622.606867" electricity_normed="0"
            traveltime="12.72" CO_perVeh="695.949754" CO2_perVeh="23537.359727" HC_perVeh="3.631425" PMx_perVeh="1.659930" NOx_perVeh="57.389148" fuel_perVeh="7484.760412" electricity_perVeh="0"/>
        </edge>
        <edge id="-29251749#0">
            <lane id="-29251749#0_0" sampledSeconds="208.54" CO_abs="25308.353185" CO2_abs="1206396.217086" HC_abs="140.937045" PMx_abs="124.193040" NOx_abs="5061.792032" fuel_abs="382483.192295" electricity_abs="0"
            CO_normed="717.153675" CO2_normed="34185.214426" HC_normed="3.993682" PMx_normed="3.519213" NOx_normed="143.434175" fuel_normed="10838.288249" electricity_normed="0"
            traveltime="6.33" CO_perVeh="768.265579" CO2_perVeh="36621.611916" HC_perVeh="4.278314" PMx_perVeh="3.770029" NOx_perVeh="153.656801" fuel_perVeh="11610.738524" electricity_perVeh="0"/>
        </edge>
        <edge id="-4922743#4">
            <lane id="-4922743#4_0" sampledSeconds="641.43" CO_abs="30425.267400" CO2_abs="1343093.359318" HC_abs="184.232534" PMx_abs="46.739856" NOx_abs="1149.918452" fuel_abs="428174.068424" electricity_abs="0"
            CO_normed="509.124287" CO2_normed="22474.788476" HC_normed="3.082874" PMx_normed="0.782126" NOx_normed="19.242277" fuel_normed="7164.894050" electricity_normed="0"
            traveltime="7.92" CO_perVeh="375.620585" CO2_perVeh="16581.399498" HC_perVeh="2.274476" PMx_perVeh="0.577035" NOx_perVeh="14.196524" fuel_perVeh="5286.099610" electricity_perVeh="0"/>
        </edge>
        <edge id="-617654357#0">
            <lane id="-617654357#0_0" sampledSeconds="363.77" CO_abs="20556.082960" CO2_abs="637339.155167" HC_abs="165.977608" PMx_abs="52.978929" NOx_abs="1851.823541" fuel_abs="202753.377637" electricity_abs="0"
            CO_normed="1679.418542" CO2_normed="52070.192416" HC_normed="13.560262" PMx_normed="4.328344" NOx_normed="151.292773" fuel_normed="16564.818434" electricity_normed="0"
            traveltime="2.61" CO_perVeh="147.417733" CO2_perVeh="4570.671042" HC_perVeh="1.190307" PMx_perVeh="0.379938" NOx_perVeh="13.280333" fuel_perVeh="1454.043713" electricity_perVeh="0"/>
        </edge>
        <edge id="-617654357#1">
            <lane id="-617654357#1_0" sampledSeconds="928.45" CO_abs="96073.292273" CO2_abs="4978503.962183" HC_abs="1181.300095" PMx_abs="496.402818" NOx_abs="19080.033587" fuel_abs="1582195.602961" electricity_abs="0"
            CO_normed="2315.019091" CO2_normed="119963.950896" HC_normed="28.465063" PMx_normed="11.961514" NOx_normed="459.759845" fuel_normed="38125.195252" electricity_normed="0"
            traveltime="7.56" CO_perVeh="782.577903" CO2_perVeh="40553.072564" HC_perVeh="9.622439" PMx_perVeh="4.043516" NOx_perVeh="155.418976" fuel_perVeh="12887.986749" electricity_perVeh="0"/>
        </edge>
        <edge id="237386421">
            <lane id="237386421_0" sampledSeconds="1037.73" CO_abs="88371.702202" CO2_abs="2112326.082235" HC_abs="460.240779" PMx_abs="92.467288" NOx_abs="1688.746267" fuel_abs="673494.228843" electricity_abs="0"
            CO_normed="1409.212282" CO2_normed="33684.038945" HC_normed="7.339193" PMx_normed="1.474522" NOx_normed="26.929457" fuel_normed="10739.821860" electricity_normed="0"
            traveltime="15.40" CO_perVeh="1311.560685" CO2_perVeh="31349.897920" HC_perVeh="6.830622" PMx_perVeh="1.372345" NOx_perVeh="25.063376" fuel_perVeh="9995.604136" electricity_perVeh="0"/>
        </edge>
        <edge id="29251749#0">
            <lane id="29251749#0_0" sampledSeconds="696.96" CO_abs="30078.684302" CO2_abs="2794669.029925" HC_abs="724.707273" PMx_abs="334.189791" NOx_abs="13882.790386" fuel_abs="887058.030320" electricity_abs="0"
            CO_normed="850.401026" CO2_normed="79012.412494" HC_normed="20.489321" PMx_normed="9.448397" NOx_normed="392.501849" fuel_normed="25079.390170" electricity_normed="0"
            traveltime="4.68" CO_perVeh="201.872280" CO2_perVeh="18756.345987" HC_perVeh="4.863853" PMx_perVeh="2.242906" NOx_perVeh="93.173974" fuel_perVeh="5953.466099" electricity_perVeh="0"/>
        </edge>
        <edge id="4922743#4">
            <lane id="4922743#4_0" sampledSeconds="1226.01" CO_abs="104496.262112" CO2_abs="5463077.226343" HC_abs="1119.752193" PMx_abs="500.078927" NOx_abs="19566.527333" fuel_abs="1736137.343049" electricity_abs="0"
            CO_normed="1767.827138" CO2_normed="92422.216653" HC_normed="18.943532" PMx_normed="8.460141" NOx_normed="331.018903" fuel_normed="29371.296617" electricity_normed="0"
            traveltime="9.55" CO_perVeh="813.864314" CO2_perVeh="42548.924800" HC_perVeh="8.721138" PMx_perVeh="3.894842" NOx_perVeh="152.392995" fuel_perVeh="13521.825556" electricity_perVeh="0"/>
        </edge>
        <edge id="617654357#0">
            <lane id="617654357#0_0" sampledSeconds="120.80" CO_abs="11435.689318" CO2_abs="482832.116599" HC_abs="63.990038" PMx_abs="21.344286" NOx_abs="573.373491" fuel_abs="153821.302796" electricity_abs="0"
            CO_normed="931.245059" CO2_normed="39318.576270" HC_normed="5.210915" PMx_normed="1.738134" NOx_normed="46.691652" fuel_normed="12526.164723" electricity_normed="0"
            traveltime="1.70" CO_perVeh="161.066047" CO2_perVeh="6800.452346" HC_perVeh="0.901268" PMx_perVeh="0.300624" NOx_perVeh="8.075683" fuel_perVeh="2166.497222" electricity_perVeh="0"/>
        </edge>
        <edge id="617654357#1">
            <lane id="617654357#1_0" sampledSeconds="382.26" CO_abs="14606.717373" CO2_abs="726810.413931" HC_abs="91.236256" PMx_abs="29.176521" NOx_abs="930.822033" fuel_abs="231532.294473" electricity_abs="0"
            CO_normed="351.969093" CO2_normed="17513.503950" HC_normed="2.198464" PMx_normed="0.703049" NOx_normed="22.429447" fuel_normed="5579.091433" electricity_normed="0"
            traveltime="5.38" CO_perVeh="205.734731" CO2_perVeh="10237.080709" HC_perVeh="1.285057" PMx_perVeh="0.410950" NOx_perVeh="13.110572" fuel_perVeh="3261.118360" electricity_perVeh="0"/>
        </edge>
    </interval>
    <interval begin="28800.00" end="32400.00" id="lane_emissions">
        <edge id="-1232571604">
            <lane id="-1232571604_0" sampledSeconds="895.25" CO_abs="49749.931558" CO2_abs="1551345.029580" HC_abs="300.968823" PMx_abs="84.851535" NOx_abs="2588.708252" fuel_abs="494035.362374" electricity_abs="0"
            CO_normed="793.333305" CO2_normed="24738.399451" HC_normed="4.799375" PMx_normed="1.353078" NOx_normed="41.280629" fuel_normed="7878.095397" electricity_normed="0"
            traveltime="12.97" CO_perVeh="721.013501" CO2_perVeh="22483.261298" HC_perVeh="4.361867" PMx_perVeh="1.229732" NOx_perVeh="37.517511" fuel_perVeh="7159.932788" electricity_perVeh="0"/>
        </edge>
        <edge id="-29251749#0">
            <lane id="-29251749#0_0" sampledSeconds="143.72" CO_abs="17180.308203" CO2_abs="1072024.086155" HC_abs="162.508827" PMx_abs="131.469718" NOx_abs="5639.075500" fuel_abs="339576.236453" electricity_abs="0"
            CO_normed="486.832196" CO2_normed="30377.559823" HC_normed="4.604954" PMx_normed="3.725410" NOx_normed="159.792448" fuel_normed="9622.449319" electricity_normed="0"
            traveltime="6.35" CO_perVeh="759.537328" CO2_perVeh="47393.929145" HC_perVeh="7.184476" PMx_perVeh="5.812245" NOx_perVeh="249.302183" fuel_perVeh="15012.584416" electricity_perVeh="0"/>
        </edge>
        <edge id="-4922743#4">
            <lane id="-4922743#4_0" sampledSeconds="501.72" CO_abs="23190.586940" CO2_abs="1326512.833401" HC_abs="154.136914" PMx_abs="90.544240" NOx_abs="3516.016281" fuel_abs="421675.855007" electricity_abs="0"
            CO_normed="388.062030" CO2_normed="22197.336570" HC_normed="2.579266" PMx_normed="1.515131" NOx_normed="58.835614" fuel_normed="7056.155539" electricity_normed="0"
            traveltime="7.72" CO_perVeh="356.793342" CO2_perVeh="20408.752414" HC_perVeh="2.371437" PMx_perVeh="1.393047" NOx_perVeh="54.094845" fuel_perVeh="6487.595074" electricity_perVeh="0"/>
        </edge>
        <edge id="-617654357#0">
            <lane id="-617654357#0_0" sampledSeconds="342.49" CO_abs="16439.826376" CO2_abs="763843.185988" HC_abs="226.595902" PMx_abs="89.411262" NOx_abs="3403.110472" fuel_abs="242628.387684" electricity_abs="0"
            CO_normed="1343.123070" CO2_normed="62405.489051" HC_normed="18.512737" PMx_normed="7.304842" NOx_normed="278.031901" fuel_normed="19822.580693" electricity_normed="0"
            traveltime="2.56" CO_perVeh="123.090411" CO2_perVeh="5719.146251" HC_perVeh="1.696598" PMx_perVeh="0.669452" NOx_perVeh="25.480212" fuel_perVeh="1816.638885" electricity_perVeh="0"/>
        </edge>
        <edge id="-617654357#1">
            <lane id="-617654357#1_0" sampledSeconds="876.21" CO_abs="88232.797089" CO2_abs="4796628.488005" HC_abs="1152.540838" PMx_abs="490.336577" NOx_abs="19213.206781" fuel_abs="1524113.516007" electricity_abs="0"
            CO_normed="2126.091496" CO2_normed="115581.409350" HC_normed="27.772068" PMx_normed="11.815339" NOx_normed="462.968838" fuel_normed="36725.626892" electricity_normed="0"
            traveltime="7.56" CO_perVeh="761.616943" CO2_perVeh="41404.031687" HC_perVeh="9.948621" PMx_perVeh="4.232538" NOx_perVeh="165.846537" fuel_perVeh="13155.999984" electricity_perVeh="0"/>
        </edge>
        <edge id="237386421">
            <lane id="237386421_0" sampledSeconds="1107.70" CO_abs="87905.831618" CO2_abs="2703310.706345" HC_abs="399.438147" PMx_abs="224.164481" NOx_abs="7629.966213" fuel_abs="859159.980400" electricity_abs="0"
            CO_normed="1401.783314" CO2_normed="43108.127991" HC_normed="6.369608" PMx_normed="3.574621" NOx_normed="121.670646" fuel_normed="13700.525919" electricity_normed="0"
            traveltime="15.36" CO_perVeh="1218.693019" CO2_perVeh="37477.671559" HC_perVeh="5.537659" PMx_perVeh="3.107731" NOx_perVeh="105.778950" fuel_perVeh="11911.067228" electricity_perVeh="0"/>
        </edge>
        <edge id="29251749#0">
            <lane id="29251749#0_0" sampledSeconds="761.63" CO_abs="33456.845837" CO2_abs="3118167.283581" HC_abs="772.213810" PMx_abs="373.958661" NOx_abs="15702.334507" fuel_abs="989483.659703" electricity_abs="0"
            CO_normed="945.910258" CO2_normed="88158.532191" HC_normed="21.832452" PMx_normed="10.572764" NOx_normed="443.944996" fuel_normed="27975.223627" electricity_normed="0"
            traveltime="4.70" CO_perVeh="206.533142" CO2_perVeh="19248.822437" HC_perVeh="4.766969" PMx_perVeh="2.308492" NOx_perVeh="96.932403" fuel_perVeh="6108.201882" electricity_perVeh="0"/>
        </edge>
        <edge id="4922743#4">
            <lane id="4922743#4_0" sampledSeconds="1204.75" CO_abs="102511.698687" CO2_abs="5584355.681044" HC_abs="1085.292242" PMx_abs="541.406029" NOx_abs="21697.605534" fuel_abs="1773607.600729" electricity_abs="0"
            CO_normed="1734.253065" CO2_normed="94473.958400" HC_normed="18.360552" PMx_normed="9.159297" NOx_normed="367.071655" fuel_normed="30005.203870" electricity_normed="0"
            traveltime="9.52" CO_perVeh="809.863903" CO2_perVeh="44117.580179" HC_perVeh="8.574036" PMx_perVeh="4.277221" NOx_perVeh="171.415631" fuel_perVeh="14011.871736" electricity_perVeh="0"/>
        </edge>
        <edge id="617654357#0">
            <lane id="617654357#0_0" sampledSeconds="135.40" CO_abs="12606.874863" CO2_abs="639394.566739" HC_abs="62.063587" PMx_abs="41.764548" NOx_abs="1671.964538" fuel_abs="203155.850039" electricity_abs="0"
            CO_normed="1026.618474" CO2_normed="52067.961461" HC_normed="5.054038" PMx_normed="3.401022" NOx_normed="136.153464" fuel_normed="16543.635997" electricity_normed="0"
            traveltime="1.71" CO_perVeh="159.580694" CO2_perVeh="8093.602111" HC_perVeh="0.785615" PMx_perVeh="0.528665" NOx_perVeh="21.164108" fuel_perVeh="2571.593038" electricity_perVeh="0"/>
        </edge>
        <edge id="617654357#1">
            <lane id="617654357#1_0" sampledSeconds="425.87" CO_abs="16455.160064" CO2_abs="883198.648908" HC_abs="82.244774" PMx_abs="49.399443" NOx_abs="1800.760890" fuel_abs="280948.444709" electricity_abs="0"
            CO_normed="396.509881" CO2_normed="21281.895154" HC_normed="1.981802" PMx_normed="1.190348" NOx_normed="43.391829" fuel_normed="6769.842041" electricity_normed="0"
            traveltime="5.39" CO_perVeh="208.295241" CO2_perVeh="11179.841140" HC_perVeh="1.041083" PMx_perVeh="0.625316" NOx_perVeh="22.794669" fuel_perVeh="3556.344866" electricity_perVeh="0"/>
        </edge>
    </interval>
    <interval begin="32400.00" end="36000.00" id="lane_emissions">
        <edge id="-1232571604">
            <lane id="-1232571604_0" sampledSeconds="835.77" CO_abs="46222.378378" CO2_abs="1430542.376457" HC_abs="238.872318" PMx_abs="88.989508" NOx_abs="2765.235898" fuel_abs="455274.176788" electricity_abs="0"
            CO_normed="737.081460" CO2_normed="22812.029604" HC_normed="3.809158" PMx_normed="1.419064" NOx_normed="44.095613" fuel_normed="7259.993251" electricity_normed="0"
            traveltime="12.86" CO_perVeh="711.129212" CO2_perVeh="22008.830114" HC_perVeh="3.675040" PMx_perVeh="1.369100" NOx_perVeh="42.543030" fuel_perVeh="7004.372731" electricity_perVeh="0"/>
        </edge>
        <edge id="-29251749#0">
            <lane id="-29251749#0_0" sampledSeconds="182.58" CO_abs="23150.076750" CO2_abs="613453.769128" HC_abs="106.463912" PMx_abs="25.145686" NOx_abs="196.737844" fuel_abs="195678.807586" electricity_abs="0"
            CO_normed="655.995374" CO2_normed="17383.218167" HC_normed="3.016829" PMx_normed="0.712544" NOx_normed="5.574889" fuel_normed="5544.879784" electricity_normed="0"
            traveltime="6.54" CO_perVeh="829.247362" CO2_perVeh="21974.221736" HC_perVeh="3.813591" PMx_perVeh="0.900731" NOx_perVeh="7.047248" fuel_perVeh="7009.313046" electricity_perVeh="0"/>
        </edge>
        <edge id="-4922743#4">
            <lane id="-4922743#4_0" sampledSeconds="529.64" CO_abs="24910.582910" CO2_abs="1163702.683814" HC_abs="123.577712" PMx_abs="53.723620" NOx_abs="1743.076139" fuel_abs="370490.664303" electricity_abs="0"
            CO_normed="416.843757" CO2_normed="19472.936476" HC_normed="2.067900" PMx_normed="0.898990" NOx_normed="29.167941" fuel_normed="6199.642977" electricity_normed="0"
            traveltime="8.03" CO_perVeh="377.441101" CO2_perVeh="17632.233798" HC_perVeh="1.872429" PMx_perVeh="0.814012" NOx_perVeh="26.410806" fuel_perVeh="5613.614288" electricity_perVeh="0"/>
        </edge>
        <edge id="-617654357#0">
            <lane id="-617654357#0_0" sampledSeconds="345.28" CO_abs="14824.714287" CO2_abs="745864.139997" HC_abs="157.647291" PMx_abs="91.273903" NOx_abs="3659.241434" fuel_abs="236603.378846" electricity_abs="0"
            CO_normed="1211.169468" CO2_normed="60936.612745" HC_normed="12.879681" PMx_normed="7.457018" NOx_normed="298.957634" fuel_normed="19330.341409" electricity_normed="0"
            traveltime="2.48" CO_perVeh="106.652621" CO2_perVeh="5365.929065" HC_perVeh="1.134153" PMx_perVeh="0.656647" NOx_perVeh="26.325478" fuel_perVeh="1702.182582" electricity_perVeh="0"/>
        </edge>
        <edge id="-617654357#1">
            <lane id="-617654357#1_0" sampledSeconds="919.32" CO_abs="90097.348446" CO2_abs="5846309.514231" HC_abs="1192.223770" PMx_abs="677.181819" NOx_abs="28566.806306" fuel_abs="1854420.598900" electricity_abs="0"
            CO_normed="2171.020444" CO2_normed="140874.928054" HC_normed="28.728284" PMx_normed="16.317634" NOx_normed="688.356778" fuel_normed="44684.833708" electricity_normed="0"
            traveltime="7.60" CO_perVeh="745.229498" CO2_perVeh="48357.053563" HC_perVeh="9.861337" PMx_perVeh="5.601229" NOx_perVeh="236.286940" fuel_perVeh="15338.619348" electricity_perVeh="0"/>
        </edge>
        <edge id="237386421">
            <lane id="237386421_0" sampledSeconds="1077.57" CO_abs="92118.555336" CO2_abs="2215308.858519" HC_abs="479.946561" PMx_abs="92.180036" NOx_abs="1743.484227" fuel_abs="706335.712034" electricity_abs="0"
            CO_normed="1468.961176" CO2_normed="35326.245551" HC_normed="7.653429" PMx_normed="1.469942" NOx_normed="27.802332" fuel_normed="11263.525945" electricity_normed="0"
            traveltime="15.60" CO_perVeh="1333.673682" CO2_perVeh="32072.790442" HC_perVeh="6.948569" PMx_perVeh="1.334564" NOx_perVeh="25.241810" fuel_perVeh="10226.184573" electricity_perVeh="0"/>
        </edge>
        <edge id="29251749#0">
            <lane id="29251749#0_0" sampledSeconds="681.68" CO_abs="30724.419153" CO2_abs="2911158.009596" HC_abs="711.135789" PMx_abs="357.581325" NOx_abs="15079.960835" fuel_abs="923528.194873" electricity_abs="0"
            CO_normed="868.657596" CO2_normed="82305.852689" HC_normed="20.105620" PMx_normed="10.109735" NOx_normed="426.348907" fuel_normed="26110.494625" electricity_normed="0"
            traveltime="4.77" CO_perVeh="214.856078" CO2_perVeh="20357.748319" HC_perVeh="4.972978" PMx_perVeh="2.500569" NOx_perVeh="105.454272" fuel_perVeh="6458.239125" electricity_perVeh="0"/>
        </edge>
        <edge id="4922743#4">
            <lane id="4922743#4_0" sampledSeconds="863.13" CO_abs="73028.977490" CO2_abs="3896211.633152" HC_abs="743.701853" PMx_abs="370.896154" NOx_abs="14864.750773" fuel_abs="1237490.797288" electricity_abs="0"
            CO_normed="1235.475850" CO2_normed="65914.593692" HC_normed="12.581659" PMx_normed="6.274677" NOx_normed="251.476075" fuel_normed="20935.388213" electricity_normed="0"
            traveltime="9.59" CO_perVeh="811.695516" CO2_perVeh="43305.241574" HC_perVeh="8.266026" PMx_perVeh="4.122401" NOx_perVeh="165.217315" fuel_perVeh="13754.344725" electricity_perVeh="0"/>
        </edge>
        <edge id="617654357#0">
            <lane id="617654357#0_0" sampledSeconds="115.69" CO_abs="10733.434558" CO2_abs="474999.476286" HC_abs="52.776713" PMx_abs="25.185275" NOx_abs="854.190422" fuel_abs="151127.948602" electricity_abs="0"
            CO_normed="874.058189" CO2_normed="38680.739111" HC_normed="4.297778" PMx_normed="2.050918" NOx_normed="69.559481" fuel_normed="12306.836205" electricity_normed="0"
            traveltime="1.73" CO_perVeh="160.200516" CO2_perVeh="7089.544422" HC_perVeh="0.787712" PMx_perVeh="0.375900" NOx_perVeh="12.749111" fuel_perVeh="2255.641024" electricity_perVeh="0"/>
        </edge>
        <edge id="617654357#1">
            <lane id="617654357#1_0" sampledSeconds="365.42" CO_abs="14803.098810" CO2_abs="727850.601600" HC_abs="73.987324" PMx_abs="32.894189" NOx_abs="1102.805073" fuel_abs="231722.500051" electricity_abs="0"
            CO_normed="356.701176" CO2_normed="17538.568713" HC_normed="1.782827" PMx_normed="0.792631" NOx_normed="26.573616" fuel_normed="5583.674700" electricity_normed="0"
            traveltime="5.45" CO_perVeh="220.943590" CO2_perVeh="10863.531126" HC_perVeh="1.104297" PMx_perVeh="0.490962" NOx_perVeh="16.459913" fuel_perVeh="3458.573210" electricity_perVeh="0"/>
        </edge>
    </interval>
    <interval begin="36000.00" end="39600.00" id="lane_emissions">
        <edge id="-1232571604">
            <lane id="-1232571604_0" sampledSeconds="838.84" CO_abs="47066.071306" CO2_abs="1568154.446709" HC_abs="283.203093" PMx_abs="107.508438" NOx_abs="3652.735447" fuel_abs="498885.576501" electricity_abs="0"
            CO_normed="750.535342" CO2_normed="25006.449477" HC_normed="4.516075" PMx_normed="1.714375" NOx_normed="58.248054" fuel_normed="7955.438949" electricity_normed="0"
            traveltime="13.11" CO_perVeh="735.423344" CO2_perVeh="24502.945652" HC_perVeh="4.425144" PMx_perVeh="1.679856" NOx_perVeh="57.075232" fuel_perVeh="7795.256515" electricity_perVeh="0"/>
        </edge>
        <edge id="-29251749#0">
            <lane id="-29251749#0_0" sampledSeconds="362.33" CO_abs="40102.108993" CO2_abs="1817079.701504" HC_abs="250.490330" PMx_abs="143.193390" NOx_abs="5792.356726" fuel_abs="577132.632749" electricity_abs="0"
            CO_normed="1136.358997" CO2_normed="51489.932035" HC_normed="7.098054" PMx_normed="4.057619" NOx_normed="164.135923" fuel_normed="16353.999228" electricity_normed="0"
            traveltime="6.51" CO_perVeh="720.256622" CO2_perVeh="32635.782023" HC_perVeh="4.498948" PMx_perVeh="2.571835" NOx_perVeh="104.034012" fuel_perVeh="10365.629414" electricity_perVeh="0"/>
        </edge>
        <edge id="-4922743#4">
            <lane id="-4922743#4_0" sampledSeconds="840.47" CO_abs="33216.071854" CO2_abs="2747250.666333" HC_abs="379.342779" PMx_abs="275.997584" NOx_abs="11967.107244" fuel_abs="871441.493016" electricity_abs="0"
            CO_normed="555.824496" CO2_normed="45971.396692" HC_normed="6.347771" PMx_normed="4.618433" NOx_normed="200.252799" fuel_normed="14582.354301" electricity_normed="0"
            traveltime="7.85" CO_perVeh="310.434095" CO2_perVeh="25675.530728" HC_perVeh="3.545300" PMx_perVeh="2.579446" NOx_perVeh="111.843391" fuel_perVeh="8144.405280" electricity_perVeh="0"/>
        </edge>
        <edge id="-617654357#0">
            <lane id="-617654357#0_0" sampledSeconds="509.03" CO_abs="33492.509214" CO2_abs="1425979.702104" HC_abs="360.511034" PMx_abs="155.923926" NOx_abs="6402.515319" fuel_abs="452687.298059" electricity_abs="0"
            CO_normed="2736.316112" CO2_normed="116501.609649" HC_normed="29.453516" PMx_normed="12.738883" NOx_normed="523.081317" fuel_normed="36984.256377" electricity_normed="0"
            traveltime="3.01" CO_perVeh="198.180528" CO2_perVeh="8437.749717" HC_perVeh="2.133201" PMx_perVeh="0.922627" NOx_perVeh="37.884706" fuel_perVeh="2678.623065" electricity_perVeh="0"/>
        </edge>
        <edge id="-617654357#1">