<?xml version="1.0" encoding="UTF-8"?>

<!-- generated on 2025-05-18 21:30:09 by Eclipse SUMO sumo Version 1.21.0
<sumoConfiguration xmlns:xsi="http://www.w3.org/2001/XMLSchema-instance" xsi:noNamespaceSchemaLocation="http://sumo.dlr.de/xsd/sumoConfiguration.xsd">

    <input>
        <net-file value="for_sd/a_smaller.net.xml"/>
        <route-files value="for_sd/sd_dir_routes.rou.xml"/>
        <additional-files value="for_sd/sd_lane_emissions_output.add.xml"/>
    </input>

    <output>
        <tripinfo-output value="for_sd/sd_tripinfo.xml"/>
    </output>

</sumoConfiguration>
-->

<meandata xmlns:xsi="http://www.w3.org/2001/XMLSchema-instance" xsi:noNamespaceSchemaLocation="http://sumo.dlr.de/xsd/meandata_file.xsd">
    <interval begin="0.00" end="3600.00" id="lane_emissions"/>
    <interval begin="3600.00" end="7200.00" id="lane_emissions"/>
    <interval begin="7200.00" end="10800.00" id="lane_emissions"/>
    <interval begin="10800.00" end="14400.00" id="lane_emissions"/>
    <interval begin="14400.00" end="18000.00" id="lane_emissions"/>
    <interval begin="18000.00" end="21600.00" id="lane_emissions"/>
    <interval begin="21600.00" end="25200.00" id="lane_emissions"/>
    <interval begin="25200.00" end="28800.00" id="lane_emissions"/>
    <interval begin="28800.00" end="32400.00" id="lane_emissions"/>
    <interval begin="32400.00" end="36000.00" id="lane_emissions"/>
    <interval begin="36000.00" end="39600.00" id="lane_emissions">
        <edge id="-1232571604">
            <lane id="-1232571604_0" sampledSeconds="256.32" CO_abs="13076.870154" CO2_abs="445818.111831" HC_abs="95.311784" PMx_abs="19.835367" NOx_abs="669.262264" fuel_abs="142047.512010" electricity_abs="0"
            CO_normed="208.529264" CO2_normed="7109.202868" HC_normed="1.519882" PMx_normed="0.316303" NOx_normed="10.672337" fuel_normed="2265.149291" electricity_normed="0"
            traveltime="12.82" CO_perVeh="653.843508" CO2_perVeh="22290.905592" HC_perVeh="4.765589" PMx_perVeh="0.991768" NOx_perVeh="33.463113" fuel_perVeh="7102.375600" electricity_perVeh="0"/>
        </edge>
        <edge id="-29251749#0">
            <lane id="-29251749#0_0" sampledSeconds="155.78" CO_abs="15491.510890" CO2_abs="779210.968560" HC_abs="81.782506" PMx_abs="49.616005" NOx_abs="2265.066321" fuel_abs="247501.810249" electricity_abs="0"
            CO_normed="438.977356" CO2_normed="22080.220135" HC_normed="2.317441" PMx_normed="1.405951" NOx_normed="64.184367" fuel_normed="7013.369517" electricity_normed="0"
            traveltime="6.54" CO_perVeh="649.961265" CO2_perVeh="32692.546938" HC_perVeh="3.431264" PMx_perVeh="2.081687" NOx_perVeh="95.033040" fuel_perVeh="10384.176911" electricity_perVeh="0"/>
        </edge>
        <edge id="-4922743#4">
            <lane id="-4922743#4_0" sampledSeconds="378.90" CO_abs="13051.252675" CO2_abs="1436278.605181" HC_abs="208.587413" PMx_abs="161.272540" NOx_abs="7420.548275" fuel_abs="455130.181436" electricity_abs="0"
            CO_normed="218.394456" CO2_normed="24034.113206" HC_normed="3.490419" PMx_normed="2.698670" NOx_normed="124.172495" fuel_normed="7615.966892" electricity_normed="0"
            traveltime="7.89" CO_perVeh="271.901097" CO2_perVeh="29922.470941" HC_perVeh="4.345571" PMx_perVeh="3.359845" NOx_perVeh="154.594756" fuel_perVeh="9481.878780" electricity_perVeh="0"/>
        </edge>
        <edge id="-617654357#0">
            <lane id="-617654357#0_0" sampledSeconds="156.18" CO_abs="5711.155819" CO2_abs="340697.610413" HC_abs="55.138918" PMx_abs="32.298182" NOx_abs="1454.617849" fuel_abs="108080.780552" electricity_abs="0"
            CO_normed="466.597698" CO2_normed="27834.772093" HC_normed="4.504814" PMx_normed="2.638740" NOx_normed="118.841328" fuel_normed="8830.129130" electricity_normed="0"
            traveltime="2.17" CO_perVeh="79.321609" CO2_perVeh="4731.911256" HC_perVeh="0.765818" PMx_perVeh="0.448586" NOx_perVeh="20.203026" fuel_perVeh="1501.121952" electricity_perVeh="0"/>
        </edge>
        <edge id="-617654357#1">
            <lane id="-617654357#1_0" sampledSeconds="466.92" CO_abs="42363.037604" CO2_abs="2793794.244036" HC_abs="419.140290" PMx_abs="260.389365" NOx_abs="11829.451702" fuel_abs="886401.729713" electricity_abs="0"
            CO_normed="1020.796087" CO2_normed="67320.343230" HC_normed="10.099766" PMx_normed="6.274443" NOx_normed="285.047029" fuel_normed="21359.077824" electricity_normed="0"
            traveltime="7.54" CO_perVeh="683.753135" CO2_perVeh="45092.743127" HC_perVeh="6.765060" PMx_perVeh="4.202769" NOx_perVeh="190.931178" fuel_perVeh="14306.810743" electricity_perVeh="0"/>
        </edge>
        <edge id="237386421">
            <lane id="237386421_0" sampledSeconds="397.93" CO_abs="26161.888151" CO2_abs="1214686.897994" HC_abs="266.101277" PMx_abs="104.271723" NOx_abs="4241.642831" fuel_abs="386011.358494" electricity_abs="0"
            CO_normed="417.188457" CO2_normed="19369.907479" HC_normed="4.243363" PMx_normed="1.662761" NOx_normed="67.639018" fuel_normed="6155.499258" electricity_normed="0"
            traveltime="13.71" CO_perVeh="901.227193" CO2_perVeh="41843.648923" HC_perVeh="9.166682" PMx_perVeh="3.591962" NOx_perVeh="146.116513" fuel_perVeh="13297.355715" electricity_perVeh="0"/>
        </edge>
        <edge id="29251749#0">
            <lane id="29251749#0_0" sampledSeconds="287.19" CO_abs="12090.586894" CO2_abs="1137283.401777" HC_abs="168.847535" PMx_abs="114.634800" NOx_abs="5169.413978" fuel_abs="360662.999671" electricity_abs="0"
            CO_normed="341.831691" CO2_normed="32153.898835" HC_normed="4.773750" PMx_normed="3.241018" NOx_normed="146.152501" fuel_normed="10196.861738" electricity_normed="0"
            traveltime="4.63" CO_perVeh="195.009466" CO2_perVeh="18343.280674" HC_perVeh="2.723347" PMx_perVeh="1.848948" NOx_perVeh="83.377645" fuel_perVeh="5817.145156" electricity_perVeh="0"/>
        </edge>
        <edge id="4922743#4">
            <lane id="4922743#4_0" sampledSeconds="194.85" CO_abs="13801.512454" CO2_abs="1206050.568221" HC_abs="158.286365" PMx_abs="132.071524" NOx_abs="6225.215322" fuel_abs="382015.329100" electricity_abs="0"
            CO_normed="233.488622" CO2_normed="20403.494641" HC_normed="2.677827" PMx_normed="2.234335" NOx_normed="105.315773" fuel_normed="6462.786823" electricity_normed="0"
            traveltime="9.43" CO_perVeh="667.638409" CO2_perVeh="58341.843712" HC_perVeh="7.656991" PMx_perVeh="6.388867" NOx_perVeh="301.140391" fuel_perVeh="18479.721509" electricity_perVeh="0"/>
        </edge>
        <edge id="617654357#0">
            <lane id="617654357#0_0" sampledSeconds="42.07" CO_abs="2749.763586" CO2_abs="130633.282996" HC_abs="15.553368" PMx_abs="2.289812" NOx_abs="54.189333" fuel_abs="41666.437704" electricity_abs="0"
            CO_normed="223.922116" CO2_normed="10637.889495" HC_normed="1.266561" PMx_normed="0.186467" NOx_normed="4.412812" fuel_normed="3393.032386" electricity_normed="0"
            traveltime="1.68" CO_perVeh="109.990543" CO2_perVeh="5225.331320" HC_perVeh="0.622135" PMx_perVeh="0.091592" NOx_perVeh="2.167573" fuel_perVeh="1666.657508" electricity_perVeh="0"/>
        </edge>
        <edge id="617654357#1">
            <lane id="617654357#1_0" sampledSeconds="135.75" CO_abs="4966.210472" CO2_abs="246728.477731" HC_abs="28.148166" PMx_abs="3.264129" NOx_abs="95.160897" fuel_abs="78696.930168" electricity_abs="0"
            CO_normed="119.667722" CO2_normed="5945.264524" HC_normed="0.678269" PMx_normed="0.078654" NOx_normed="2.293034" fuel_normed="1896.311570" electricity_normed="0"
            traveltime="5.43" CO_perVeh="198.651725" CO2_perVeh="9869.303380" HC_perVeh="1.125945" PMx_perVeh="0.130567" NOx_perVeh="3.806499" fuel_perVeh="3147.929603" electricity_perVeh="0"/>
        </edge>
    </interval>
    <interval begin="39600.00" end="43200.00" id="lane_emissions">
        <edge id="-1232571604">
            <lane id="-1232571604_0" sampledSeconds="410.95" CO_abs="19877.359684" CO2_abs="917044.417081" HC_abs="208.610115" PMx_abs="80.985823" NOx_abs="3198.743516" fuel_abs="291432.143688" electricity_abs="0"
            CO_normed="316.972727" CO2_normed="14623.575460" HC_normed="3.326585" PMx_normed="1.291434" NOx_normed="51.008508" fuel_normed="4647.299373" electricity_normed="0"
            traveltime="12.84" CO_perVeh="621.169602" CO2_perVeh="28657.735471" HC_perVeh="6.519088" PMx_perVeh="2.530816" NOx_perVeh="99.961075" fuel_perVeh="9107.285455" electricity_perVeh="0"/>
        </edge>
        <edge id="-29251749#0">
            <lane id="-29251749#0_0" sampledSeconds="253.45" CO_abs="23241.003444" CO2_abs="1640131.783680" HC_abs="234.799398" PMx_abs="161.809578" NOx_abs="7520.473284" fuel_abs="520030.582714" electricity_abs="0"
            CO_normed="658.571931" CO2_normed="46475.822717" HC_normed="6.653426" PMx_normed="4.585140" NOx_normed="213.104939" fuel_normed="14735.919034" electricity_normed="0"
            traveltime="6.61" CO_perVeh="606.485804" CO2_perVeh="42800.072945" HC_perVeh="6.127210" PMx_perVeh="4.222503" NOx_perVeh="196.250575" fuel_perVeh="13570.462505" electricity_perVeh="0"/>
        </edge>
        <edge id="-4922743#4">
            <lane id="-4922743#4_0" sampledSeconds="287.28" CO_abs="10835.267221" CO2_abs="712962.901947" HC_abs="81.343433" PMx_abs="47.749961" NOx_abs="2063.285245" fuel_abs="226574.715259" electricity_abs="0"
            CO_normed="181.313039" CO2_normed="11930.436780" HC_normed="1.361169" PMx_normed="0.799029" NOx_normed="34.526192" fuel_normed="3791.410898" electricity_normed="0"
            traveltime="7.98" CO_perVeh="300.983278" CO2_perVeh="19804.764117" HC_perVeh="2.259567" PMx_perVeh="1.326404" NOx_perVeh="57.314171" fuel_perVeh="6293.818063" electricity_perVeh="0"/>
        </edge>
        <edge id="-617654357#0">
            <lane id="-617654357#0_0" sampledSeconds="175.79" CO_abs="4972.732461" CO2_abs="319113.508275" HC_abs="43.632212" PMx_abs="26.072058" NOx_abs="1140.657342" fuel_abs="101319.702854" electricity_abs="0"
            CO_normed="406.268992" CO2_normed="26071.365055" HC_normed="3.564723" PMx_normed="2.130070" NOx_normed="93.190959" fuel_normed="8277.753501" electricity_normed="0"
            traveltime="2.02" CO_perVeh="57.157844" CO2_perVeh="3667.971359" HC_perVeh="0.501520" PMx_perVeh="0.299679" NOx_perVeh="13.111004" fuel_perVeh="1164.594286" electricity_perVeh="0"/>
        </edge>
        <edge id="-617654357#1">
            <lane id="-617654357#1_0" sampledSeconds="557.55" CO_abs="51188.263619" CO2_abs="2902560.488888" HC_abs="407.736838" PMx_abs="222.902681" NOx_abs="9964.016606" fuel_abs="921805.578245" electricity_abs="0"
            CO_normed="1233.452135" CO2_normed="69941.216600" HC_normed="9.824984" PMx_normed="5.371149" NOx_normed="240.096786" fuel_normed="22212.182608" electricity_normed="0"
            traveltime="7.40" CO_perVeh="679.063050" CO2_perVeh="38505.341652" HC_perVeh="5.409033" PMx_perVeh="2.957025" NOx_perVeh="132.182556" fuel_perVeh="12228.664609" electricity_perVeh="0"/>
        </edge>
        <edge id="237386421">
            <lane id="237386421_0" sampledSeconds="480.54" CO_abs="29817.592868" CO2_abs="1708430.431565" HC_abs="187.798058" PMx_abs="194.291857" NOx_abs="8527.357119" fuel_abs="541174.234644" electricity_abs="0"
            CO_normed="475.483860" CO2_normed="27243.349252" HC_normed="2.994707" PMx_normed="3.098260" NOx_normed="135.980818" fuel_normed="8629.791654" electricity_normed="0"
            traveltime="14.25" CO_perVeh="884.149498" CO2_perVeh="50658.277986" HC_perVeh="5.568577" PMx_perVeh="5.761131" NOx_perVeh="252.852688" fuel_perVeh="16046.866358" electricity_perVeh="0"/>
        </edge>
        <edge id="29251749#0">
            <lane id="29251749#0_0" sampledSeconds="431.92" CO_abs="17077.899197" CO2_abs="2058087.314824" HC_abs="273.693549" PMx_abs="239.674569" NOx_abs="11276.739190" fuel_abs="651651.107760" electricity_abs="0"
            CO_normed="482.835714" CO2_normed="58187.371072" HC_normed="7.738014" PMx_normed="6.776211" NOx_normed="318.822143" fuel_normed="18423.836804" electricity_normed="0"
            traveltime="4.64" CO_perVeh="183.635410" CO2_perVeh="22130.222453" HC_perVeh="2.942975" PMx_perVeh="2.577175" NOx_perVeh="121.256637" fuel_perVeh="7007.080736" electricity_perVeh="0"/>
        </edge>
        <edge id="4922743#4">
            <lane id="4922743#4_0" sampledSeconds="332.06" CO_abs="23255.030205" CO2_abs="1936623.441771" HC_abs="333.963401" PMx_abs="208.801506" NOx_abs="9542.332294" fuel_abs="614018.214552" electricity_abs="0"
            CO_normed="393.419560" CO2_normed="32763.042493" HC_normed="5.649863" PMx_normed="3.532423" NOx_normed="161.433468" fuel_normed="10387.721444" electricity_normed="0"
            traveltime="9.50" CO_perVeh="665.639190" CO2_perVeh="55432.843916" HC_perVeh="9.559185" PMx_perVeh="5.976619" NOx_perVeh="273.134470" fuel_perVeh="17575.319556" electricity_perVeh="0"/>
        </edge>
        <edge id="617654357#0">
            <lane id="617654357#0_0" sampledSeconds="80.61" CO_abs="5443.199394" CO2_abs="260306.756644" HC_abs="30.659051" PMx_abs="5.417696" NOx_abs="152.392008" fuel_abs="83003.610559" electricity_abs="0"
            CO_normed="443.257280" CO2_normed="21197.618619" HC_normed="2.496665" PMx_normed="0.441180" NOx_normed="12.409773" fuel_normed="6759.251674" electricity_normed="0"
            traveltime="1.68" CO_perVeh="113.399987" CO2_perVeh="5423.057430" HC_perVeh="0.638730" PMx_perVeh="0.112869" NOx_perVeh="3.174833" fuel_perVeh="1729.241887" electricity_perVeh="0"/>
        </edge>
        <edge id="617654357#1">
            <lane id="617654357#1_0" sampledSeconds="260.95" CO_abs="8763.765659" CO2_abs="502632.878262" HC_abs="49.082713" PMx_abs="17.575000" NOx_abs="777.368154" fuel_abs="160008.024888" electricity_abs="0"
            CO_normed="211.175076" CO2_normed="12111.635621" HC_normed="1.182716" PMx_normed="0.423494" NOx_normed="18.731763" fuel_normed="3855.615058" electricity_normed="0"
            traveltime="5.44" CO_perVeh="182.581659" CO2_perVeh="10471.702265" HC_perVeh="1.022574" PMx_perVeh="0.366152" NOx_perVeh="16.195454" fuel_perVeh="3333.559083" electricity_perVeh="0"/>
        </edge>
    </interval>
    <interval begin="43200.00" end="46800.00" id="lane_emissions">
        <edge id="-1232571604">
            <lane id="-1232571604_0" sampledSeconds="1301.01" CO_abs="67385.450714" CO2_abs="2465309.912107" HC_abs="345.641857" PMx_abs="128.840148" NOx_abs="5159.155645" fuel_abs="784286.276622" electricity_abs="0"
            CO_normed="1074.556701" CO2_normed="39312.867359" HC_normed="5.511750" PMx_normed="2.054539" NOx_normed="82.270063" fuel_normed="12506.558390" electricity_normed="0"
            traveltime="12.88" CO_perVeh="667.192978" CO2_perVeh="24409.385786" HC_perVeh="3.422249" PMx_perVeh="1.275665" NOx_perVeh="51.081537" fuel_perVeh="7765.330516" electricity_perVeh="0"/>
        </edge>
        <edge id="-29251749#0">
            <lane id="-29251749#0_0" sampledSeconds="747.18" CO_abs="75232.404210" CO2_abs="3595855.332794" HC_abs="515.123573" PMx_abs="223.336923" NOx_abs="9457.925762" fuel_abs="1143303.630229" electricity_abs="0"
            CO_normed="2131.833500" CO2_normed="101894.455449" HC_normed="14.596871" PMx_normed="6.328618" NOx_normed="268.005831" fuel_normed="32397.382551" electricity_normed="0"
            traveltime="6.56" CO_perVeh="660.672366" CO2_perVeh="31577.912161" HC_perVeh="4.523688" PMx_perVeh="1.961290" NOx_perVeh="83.057165" fuel_perVeh="10040.209705" electricity_perVeh="0"/>
        </edge>
        <edge id="-4922743#4">
            <lane id="-4922743#4_0" sampledSeconds="486.80" CO_abs="18425.075253" CO2_abs="1270406.860235" HC_abs="159.296118" PMx_abs="82.386917" NOx_abs="3552.874379" fuel_abs="403839.780669" electricity_abs="0"
            CO_normed="308.317859" CO2_normed="21258.481597" HC_normed="2.665598" PMx_normed="1.378630" NOx_normed="59.452383" fuel_normed="6757.693786" electricity_normed="0"
            traveltime="7.73" CO_perVeh="292.462373" CO2_perVeh="20165.247614" HC_perVeh="2.528517" PMx_perVeh="1.307733" NOx_perVeh="56.394997" fuel_perVeh="6410.174117" electricity_perVeh="0"/>
        </edge>
        <edge id="-617654357#0">
            <lane id="-617654357#0_0" sampledSeconds="449.47" CO_abs="32206.040951" CO2_abs="832978.686377" HC_abs="176.904624" PMx_abs="37.255769" NOx_abs="1370.694538" fuel_abs="265220.186636" electricity_abs="0"
            CO_normed="2631.212496" CO2_normed="68053.814246" HC_normed="14.452992" PMx_normed="3.043772" NOx_normed="111.984848" fuel_normed="21668.315902" electricity_normed="0"
            traveltime="3.21" CO_perVeh="230.043150" CO2_perVeh="5949.847760" HC_perVeh="1.263604" PMx_perVeh="0.266113" NOx_perVeh="9.790675" fuel_perVeh="1894.429905" electricity_perVeh="0"/>
        </edge>
        <edge id="-617654357#1">
            <lane id="-617654357#1_0" sampledSeconds="930.59" CO_abs="90076.806842" CO2_abs="4480656.082115" HC_abs="647.688384" PMx_abs="298.550257" NOx_abs="12926.155647" fuel_abs="1424077.147991" electricity_abs="0"
            CO_normed="2170.525466" CO2_normed="107967.616436" HC_normed="15.606949" PMx_normed="7.193982" NOx_normed="311.473630" fuel_normed="34315.112000" electricity_normed="0"
            traveltime="7.65" CO_perVeh="740.045945" CO2_perVeh="36811.821842" HC_perVeh="5.321227" PMx_perVeh="2.452806" NOx_perVeh="106.197693" fuel_perVeh="11699.821031" electricity_perVeh="0"/>
        </edge>
        <edge id="237386421">
            <lane id="237386421_0" sampledSeconds="1439.79" CO_abs="125118.701961" CO2_abs="3329284.525156" HC_abs="678.224917" PMx_abs="104.799288" NOx_abs="3255.129200" fuel_abs="1061144.954739" electricity_abs="0"
            CO_normed="1995.195375" CO2_normed="53090.169433" HC_normed="10.815259" PMx_normed="1.671173" NOx_normed="51.907657" fuel_normed="16921.463160" electricity_normed="0"
            traveltime="17.12" CO_perVeh="1487.853849" CO2_perVeh="39590.314772" HC_perVeh="8.065138" PMx_perVeh="1.246225" NOx_perVeh="38.708494" fuel_perVeh="12618.645976" electricity_perVeh="0"/>
        </edge>
        <edge id="29251749#0">
            <lane id="29251749#0_0" sampledSeconds="447.43" CO_abs="21251.504199" CO2_abs="1379342.062980" HC_abs="196.628004" PMx_abs="81.520984" NOx_abs="3494.242340" fuel_abs="438744.100688" electricity_abs="0"
            CO_normed="600.834159" CO2_normed="38997.513796" HC_normed="5.559175" PMx_normed="2.304806" NOx_normed="98.791132" fuel_normed="12404.413364" electricity_normed="0"
            traveltime="4.71" CO_perVeh="223.701749" CO2_perVeh="14519.500800" HC_perVeh="2.069784" PMx_perVeh="0.858122" NOx_perVeh="36.781779" fuel_perVeh="4618.394155" electricity_perVeh="0"/>
        </edge>
        <edge id="4922743#4">
            <lane id="4922743#4_0" sampledSeconds="182.86" CO_abs="12156.025552" CO2_abs="1102815.664906" HC_abs="144.205014" PMx_abs="126.032043" NOx_abs="5953.181081" fuel_abs="349214.846004" electricity_abs="0"
            CO_normed="205.650914" CO2_normed="18657.006681" HC_normed="2.439604" PMx_normed="2.132161" NOx_normed="100.713603" fuel_normed="5907.881002" electricity_normed="0"
            traveltime="9.70" CO_perVeh="645.063488" CO2_perVeh="58521.275464" HC_perVeh="7.652286" PMx_perVeh="6.687932" NOx_perVeh="315.907509" fuel_perVeh="18531.200499" electricity_perVeh="0"/>
        </edge>
        <edge id="617654357#0">
            <lane id="617654357#0_0" sampledSeconds="208.80" CO_abs="11201.722267" CO2_abs="771743.911341" HC_abs="101.292795" PMx_abs="52.868545" NOx_abs="2305.473676" fuel_abs="245279.823046" electricity_abs="0"
            CO_normed="912.192367" CO2_normed="62845.595386" HC_normed="8.248599" PMx_normed="4.305256" NOx_normed="187.742156" fuel_normed="19973.926958" electricity_normed="0"
            traveltime="1.64" CO_perVeh="88.202538" CO2_perVeh="6076.723711" HC_perVeh="0.797581" PMx_perVeh="0.416288" NOx_perVeh="18.153336" fuel_perVeh="1931.337189" electricity_perVeh="0"/>
        </edge>
        <edge id="617654357#1">
            <lane id="617654357#1_0" sampledSeconds="688.06" CO_abs="23535.173438" CO2_abs="1652991.482480" HC_abs="237.745085" PMx_abs="113.337270" NOx_abs="4846.873231" fuel_abs="525466.167395" electricity_abs="0"
            CO_normed="567.112613" CO2_normed="39831.120060" HC_normed="5.728797" PMx_normed="2.731019" NOx_normed="116.792126" fuel_normed="12661.835359" electricity_normed="0"
            traveltime="5.42" CO_perVeh="185.316326" CO2_perVeh="13015.680964" HC_perVeh="1.872009" PMx_perVeh="0.892419" NOx_perVeh="38.164356" fuel_perVeh="4137.528877" electricity_perVeh="0"/>
        </edge>
    </interval>
    <interval begin="46800.00" end="50400.00" id="lane_emissions">
        <edge id="-1232571604">
            <lane id="-1232571604_0" sampledSeconds="740.73" CO_abs="36341.884097" CO2_abs="1692162.148956" HC_abs="219.958875" PMx_abs="151.619970" NOx_abs="6404.465367" fuel_abs="537059.959803" electricity_abs="0"
            CO_normed="579.522948" CO2_normed="26983.928384" HC_normed="3.507557" PMx_normed="2.417796" NOx_normed="102.128295" fuel_normed="8564.183700" electricity_normed="0"
            traveltime="13.23" CO_perVeh="648.962216" CO2_perVeh="30217.181231" HC_perVeh="3.927837" PMx_perVeh="2.707499" NOx_perVeh="114.365453" fuel_perVeh="9590.356425" electricity_perVeh="0"/>
        </edge>
        <edge id="-29251749#0">
            <lane id="-29251749#0_0" sampledSeconds="469.91" CO_abs="45086.823767" CO2_abs="2532788.657255" HC_abs="352.988557" PMx_abs="197.502284" NOx_abs="8922.164200" fuel_abs="804221.900859" electricity_abs="0"
            CO_normed="1277.609061" CO2_normed="71770.718539" HC_normed="10.002509" PMx_normed="5.596551" NOx_normed="252.824148" fuel_normed="22788.945901" electricity_normed="0"
            traveltime="6.63" CO_perVeh="636.354610" CO2_perVeh="35747.733022" HC_perVeh="4.982074" PMx_perVeh="2.787544" NOx_perVeh="125.927263" fuel_perVeh="11350.773275" electricity_perVeh="0"/>
        </edge>
        <edge id="-4922743#4">
            <lane id="-4922743#4_0" sampledSeconds="258.02" CO_abs="10052.853516" CO2_abs="734283.986016" HC_abs="118.754929" PMx_abs="60.209660" NOx_abs="2503.625055" fuel_abs="233314.624581" electricity_abs="0"
            CO_normed="168.220440" CO2_normed="12287.215295" HC_normed="1.987198" PMx_normed="1.007524" NOx_normed="41.894663" fuel_normed="3904.193852" electricity_normed="0"
            traveltime="7.82" CO_perVeh="304.631925" CO2_perVeh="22251.029879" HC_perVeh="3.598634" PMx_perVeh="1.824535" NOx_perVeh="75.867426" fuel_perVeh="7070.140139" electricity_perVeh="0"/>
        </edge>
        <edge id="-617654357#0">
            <lane id="-617654357#0_0" sampledSeconds="212.53" CO_abs="14376.704291" CO2_abs="378209.217734" HC_abs="82.911012" PMx_abs="20.680509" NOx_abs="741.160974" fuel_abs="120381.420245" electricity_abs="0"
            CO_normed="1174.567344" CO2_normed="30899.445893" HC_normed="6.773775" PMx_normed="1.689584" NOx_normed="60.552367" fuel_normed="9835.083353" electricity_normed="0"
            traveltime="3.13" CO_perVeh="211.422122" CO2_perVeh="5561.900261" HC_perVeh="1.219280" PMx_perVeh="0.304125" NOx_perVeh="10.899426" fuel_perVeh="1770.315004" electricity_perVeh="0"/>
        </edge>
        <edge id="-617654357#1">
            <lane id="-617654357#1_0" sampledSeconds="459.85" CO_abs="42800.524056" CO2_abs="2417134.152365" HC_abs="332.337358" PMx_abs="198.600881" NOx_abs="8927.757651" fuel_abs="767279.131300" electricity_abs="0"
            CO_normed="1031.337929" CO2_normed="58244.196443" HC_normed="8.008129" PMx_normed="4.785563" NOx_normed="215.126690" fuel_normed="18488.653766" electricity_normed="0"
            traveltime="7.80" CO_perVeh="725.995973" CO2_perVeh="41000.191009" HC_perVeh="5.637211" PMx_perVeh="3.368731" NOx_perVeh="151.435438" fuel_perVeh="13014.830356" electricity_perVeh="0"/>
        </edge>
        <edge id="237386421">
            <lane id="237386421_0" sampledSeconds="749.55" CO_abs="52557.363148" CO2_abs="1921013.036365" HC_abs="361.223940" PMx_abs="120.117959" NOx_abs="4730.000394" fuel_abs="611086.065820" electricity_abs="0"
            CO_normed="838.101788" CO2_normed="30633.280758" HC_normed="5.760229" PMx_normed="1.915451" NOx_normed="75.426573" fuel_normed="9744.635079" electricity_normed="0"
            traveltime="14.82" CO_perVeh="1039.454081" CO2_perVeh="37992.865727" HC_perVeh="7.144112" PMx_perVeh="2.375635" NOx_perVeh="93.547658" fuel_perVeh="12085.764337" electricity_perVeh="0"/>
        </edge>
        <edge id="29251749#0">
            <lane id="29251749#0_0" sampledSeconds="225.09" CO_abs="11190.217709" CO2_abs="685984.135032" HC_abs="102.378041" PMx_abs="39.204331" NOx_abs="1668.041433" fuel_abs="218228.760470" electricity_abs="0"
            CO_normed="316.375960" CO2_normed="19394.518944" HC_normed="2.894488" PMx_normed="1.108406" NOx_normed="47.159780" fuel_normed="6169.882965" electricity_normed="0"
            traveltime="4.79" CO_perVeh="238.089738" CO2_perVeh="14595.407128" HC_perVeh="2.178256" PMx_perVeh="0.834135" NOx_perVeh="35.490243" fuel_perVeh="4643.165116" electricity_perVeh="0"/>
        </edge>
        <edge id="4922743#4">
            <lane id="4922743#4_0" sampledSeconds="110.30" CO_abs="8341.122861" CO2_abs="559442.986674" HC_abs="39.997841" PMx_abs="57.057642" NOx_abs="2691.431764" fuel_abs="177127.163049" electricity_abs="0"
            CO_normed="141.111874" CO2_normed="9464.438956" HC_normed="0.676668" PMx_normed="0.965279" NOx_normed="45.532596" fuel_normed="2996.568483" electricity_normed="0"
            traveltime="10.03" CO_perVeh="758.855772" CO2_perVeh="50896.809306" HC_perVeh="3.638910" PMx_perVeh="5.190970" NOx_perVeh="244.860142" fuel_perVeh="16114.613384" electricity_perVeh="0"/>
        </edge>
        <edge id="617654357#0">
            <lane id="617654357#0_0" sampledSeconds="140.18" CO_abs="7829.550959" CO2_abs="630298.010485" HC_abs="63.440757" PMx_abs="50.149544" NOx_abs="2443.449962" fuel_abs="199943.320467" electricity_abs="0"
            CO_normed="637.585583" CO2_normed="51327.199551" HC_normed="5.166185" PMx_normed="4.083839" NOx_normed="198.978010" fuel_normed="16282.029354" electricity_normed="0"
            traveltime="1.67" CO_perVeh="93.208940" CO2_perVeh="7503.547744" HC_perVeh="0.755247" PMx_perVeh="0.597018" NOx_perVeh="29.088690" fuel_perVeh="2380.277625" electricity_perVeh="0"/>
        </edge>
        <edge id="617654357#1">
            <lane id="617654357#1_0" sampledSeconds="461.64" CO_abs="16137.652787" CO2_abs="1168583.597125" HC_abs="131.455434" PMx_abs="85.389019" NOx_abs="3844.460915" fuel_abs="371131.024849" electricity_abs="0"
            CO_normed="388.859103" CO2_normed="28158.640895" HC_normed="3.167601" PMx_normed="2.057567" NOx_normed="92.637612" fuel_normed="8942.916261" electricity_normed="0"
            traveltime="5.50" CO_perVeh="192.120812" CO2_perVeh="13912.136558" HC_perVeh="1.564994" PMx_perVeh="1.016567" NOx_perVeh="45.768797" fuel_perVeh="4418.362119" electricity_perVeh="0"/>
        </edge>
    </interval>
    <interval begin="50400.00" end="54000.00" id="lane_emissions">
        <edge id="-1232571604">
            <lane id="-1232571604_0" sampledSeconds="590.13" CO_abs="29363.500937" CO2_abs="1274428.033917" HC_abs="202.289988" PMx_abs="100.836592" NOx_abs="4138.544392" fuel_abs="404895.191697" electricity_abs="0"
            CO_normed="468.242719" CO2_normed="20322.564725" HC_normed="3.225801" PMx_normed="1.607983" NOx_normed="65.994967" fuel_normed="6456.628794" electricity_normed="0"
            traveltime="12.99" CO_perVeh="646.223673" CO2_perVeh="28047.253860" HC_perVeh="4.451941" PMx_perVeh="2.219183" NOx_perVeh="91.079921" fuel_perVeh="8910.819541" electricity_perVeh="0"/>
        </edge>
        <edge id="-29251749#0">
            <lane id="-29251749#0_0" sampledSeconds="362.91" CO_abs="31670.865480" CO2_abs="2927483.384456" HC_abs="213.760089" PMx_abs="340.844892" NOx_abs="16727.993708" fuel_abs="925773.985399" electricity_abs="0"
            CO_normed="897.445891" CO2_normed="82955.040648" HC_normed="6.057243" PMx_normed="9.658399" NOx_normed="474.015124" fuel_normed="26233.323474" electricity_normed="0"
            traveltime="6.56" CO_perVeh="572.562469" CO2_perVeh="52924.575643" HC_perVeh="3.864467" PMx_perVeh="6.161972" NOx_perVeh="302.417419" fuel_perVeh="16736.626270" electricity_perVeh="0"/>
        </edge>
        <edge id="-4922743#4">
            <lane id="-4922743#4_0" sampledSeconds="223.40" CO_abs="7466.833745" CO2_abs="717972.504676" HC_abs="66.509344" PMx_abs="71.466045" NOx_abs="3309.046782" fuel_abs="227537.008686" electricity_abs="0"
            CO_normed="124.947017" CO2_normed="12014.265473" HC_normed="1.112941" PMx_normed="1.195884" NOx_normed="55.372269" fuel_normed="3807.513532" electricity_normed="0"
            traveltime="7.70" CO_perVeh="257.477026" CO2_perVeh="24757.672575" HC_perVeh="2.293426" PMx_perVeh="2.464346" NOx_perVeh="114.105061" fuel_perVeh="7846.103748" electricity_perVeh="0"/>
        </edge>
        <edge id="-617654357#0">
            <lane id="-617654357#0_0" sampledSeconds="167.07" CO_abs="6404.718382" CO2_abs="310645.450060" HC_abs="72.342424" PMx_abs="31.785223" NOx_abs="1281.191629" fuel_abs="98624.221012" electricity_abs="0"
            CO_normed="523.261306" CO2_normed="25379.530234" HC_normed="5.910329" PMx_normed="2.596832" NOx_normed="104.672519" fuel_normed="8057.534396" electricity_normed="0"