<?xml version="1.0" encoding="UTF-8"?>

<!-- generated on 2025-05-18 21:30:09 by Eclipse SUMO sumo Version 1.21.0
<sumoConfiguration xmlns:xsi="http://www.w3.org/2001/XMLSchema-instance" xsi:noNamespaceSchemaLocation="http://sumo.dlr.de/xsd/sumoConfiguration.xsd">

    <input>
        <net-file value="for_sd/a_smaller.net.xml"/>
        <route-files value="for_sd/sd_dir_routes.rou.xml"/>
        <additional-files value="for_sd/sd_lane_emissions_output.add.xml"/>
    </input>

    <output>
        <tripinfo-output value="for_sd/sd_tripinfo.xml"/>
    </output>

</sumoConfiguration>
-->

<tripinfos xmlns:xsi="http://www.w3.org/2001/XMLSchema-instance" xsi:noNamespaceSchemaLocation="http://sumo.dlr.de/xsd/tripinfo_file.xsd">
    <tripinfo id="car_0" depart="36349.00" departLane="-29251749#0_0" departPos="5.10" departSpeed="0.00" departDelay="0.00" arrival="36364.00" arrivalLane="-4922743#4_0" arrivalPos="59.76" arrivalSpeed="8.72" duration="15.00" routeLength="105.02" waitingTime="0.00" waitingCount="0" stopTime="0.00" timeLoss="2.93" rerouteNo="0" devices="tripinfo_car_0" vType="car" speedFactor="1.06" vaporized=""/>
    <tripinfo id="car_1" depart="36384.00" departLane="-29251749#0_0" departPos="5.10" departSpeed="0.00" departDelay="0.00" arrival="36400.00" arrivalLane="-4922743#4_0" arrivalPos="59.76" arrivalSpeed="7.38" duration="16.00" routeLength="105.02" waitingTime="0.00" waitingCount="0" stopTime="0.00" timeLoss="2.56" rerouteNo="0" devices="tripinfo_car_1" vType="car" speedFactor="0.94" vaporized=""/>
    <tripinfo id="car_2" depart="36397.00" departLane="-617654357#1_0" departPos="5.10" departSpeed="0.00" departDelay="0.00" arrival="36417.00" arrivalLane="-4922743#4_0" arrivalPos="59.76" arrivalSpeed="7.94" duration="20.00" routeLength="133.18" waitingTime="0.00" waitingCount="0" stopTime="0.00" timeLoss="3.52" rerouteNo="0" devices="tripinfo_car_2" vType="car" speedFactor="1.01" vaporized=""/>
    <tripinfo id="car_3" depart="36457.00" departLane="4922743#4_0" departPos="5.10" departSpeed="0.00" departDelay="0.00" arrival="36472.00" arrivalLane="29251749#0_0" arrivalPos="35.37" arrivalSpeed="8.85" duration="15.00" routeLength="104.21" waitingTime="0.00" waitingCount="0" stopTime="0.00" timeLoss="2.73" rerouteNo="0" devices="tripinfo_car_3" vType="car" speedFactor="1.08" vaporized=""/>
    <tripinfo id="car_4" depart="36464.00" departLane="-29251749#0_0" departPos="5.10" departSpeed="0.00" departDelay="0.00" arrival="36480.00" arrivalLane="617654357#1_0" arrivalPos="41.50" arrivalSpeed="8.02" duration="16.00" routeLength="108.41" waitingTime="0.00" waitingCount="0" stopTime="0.00" timeLoss="3.04" rerouteNo="0" devices="tripinfo_car_4" vType="car" speedFactor="1.03" vaporized=""/>
    <tripinfo id="car_5" depart="36472.00" departLane="-29251749#0_0" departPos="5.10" departSpeed="0.00" departDelay="1.00" arrival="36492.00" arrivalLane="617654357#1_0" arrivalPos="41.50" arrivalSpeed="6.28" duration="20.00" routeLength="108.41" waitingTime="0.00" waitingCount="0" stopTime="0.00" timeLoss="3.63" rerouteNo="0" devices="tripinfo_car_5" vType="car" speedFactor="0.83" vaporized=""/>
    <tripinfo id="car_6" depart="36489.00" departLane="4922743#4_0" departPos="5.10" departSpeed="0.00" departDelay="0.00" arrival="36504.00" arrivalLane="29251749#0_0" arrivalPos="35.37" arrivalSpeed="7.71" duration="15.00" routeLength="104.21" waitingTime="0.00" waitingCount="0" stopTime="0.00" timeLoss="2.49" rerouteNo="0" devices="tripinfo_car_6" vType="car" speedFactor="1.05" vaporized=""/>
    <tripinfo id="car_7" depart="36642.00" departLane="237386421_0" departPos="5.10" departSpeed="0.00" departDelay="0.00" arrival="36669.00" arrivalLane="617654357#1_0" arrivalPos="41.50" arrivalSpeed="6.53" duration="27.00" routeLength="135.78" waitingTime="0.00" waitingCount="0" stopTime="0.00" timeLoss="4.15" rerouteNo="0" devices="tripinfo_car_7" vType="car" speedFactor="0.89" vaporized=""/>
    <tripinfo id="car_8" depart="36661.00" departLane="4922743#4_0" departPos="5.10" departSpeed="0.00" departDelay="0.00" arrival="36678.00" arrivalLane="29251749#0_0" arrivalPos="35.37" arrivalSpeed="6.59" duration="17.00" routeLength="104.21" waitingTime="0.00" waitingCount="0" stopTime="0.00" timeLoss="2.89" rerouteNo="0" devices="tripinfo_car_8" vType="car" speedFactor="0.94" vaporized=""/>
    <tripinfo id="car_9" depart="36726.00" departLane="-29251749#0_0" departPos="5.10" departSpeed="0.00" departDelay="0.00" arrival="36745.00" arrivalLane="617654357#1_0" arrivalPos="41.50" arrivalSpeed="6.13" duration="19.00" routeLength="108.41" waitingTime="0.00" waitingCount="0" stopTime="0.00" timeLoss="2.99" rerouteNo="0" devices="tripinfo_car_9" vType="car" speedFactor="0.86" vaporized=""/>
    <tripinfo id="car_10" depart="36764.00" departLane="-29251749#0_0" departPos="5.10" departSpeed="0.00" departDelay="0.00" arrival="36779.00" arrivalLane="617654357#1_0" arrivalPos="41.50" arrivalSpeed="8.47" duration="15.00" routeLength="108.41" waitingTime="0.00" waitingCount="0" stopTime="0.00" timeLoss="2.87" rerouteNo="0" devices="tripinfo_car_10" vType="car" speedFactor="1.09" vaporized=""/>
    <tripinfo id="car_11" depart="36773.00" departLane="-29251749#0_0" departPos="5.10" departSpeed="0.00" departDelay="0.00" arrival="36788.00" arrivalLane="-4922743#4_0" arrivalPos="59.76" arrivalSpeed="7.74" duration="15.00" routeLength="105.02" waitingTime="0.00" waitingCount="0" stopTime="0.00" timeLoss="2.38" rerouteNo="0" devices="tripinfo_car_11" vType="car" speedFactor="1.03" vaporized=""/>
    <tripinfo id="truck_12" depart="36796.00" departLane="-617654357#1_0" departPos="7.20" departSpeed="0.00" departDelay="0.00" arrival="36812.00" arrivalLane="29251749#0_0" arrivalPos="35.37" arrivalSpeed="7.72" duration="16.00" routeLength="101.82" waitingTime="0.00" waitingCount="0" stopTime="0.00" timeLoss="3.29" rerouteNo="0" devices="tripinfo_truck_12" vType="truck" speedFactor="1.02" vaporized=""/>
    <tripinfo id="car_13" depart="36809.00" departLane="-29251749#0_0" departPos="5.10" departSpeed="0.00" departDelay="0.00" arrival="36824.00" arrivalLane="617654357#1_0" arrivalPos="41.50" arrivalSpeed="8.37" duration="15.00" routeLength="108.41" waitingTime="0.00" waitingCount="0" stopTime="0.00" timeLoss="3.22" rerouteNo="0" devices="tripinfo_car_13" vType="car" speedFactor="1.12" vaporized=""/>
    <tripinfo id="car_14" depart="36822.00" departLane="-29251749#0_0" departPos="5.10" departSpeed="0.00" departDelay="0.00" arrival="36839.00" arrivalLane="617654357#1_0" arrivalPos="41.50" arrivalSpeed="7.45" duration="17.00" routeLength="108.41" waitingTime="0.00" waitingCount="0" stopTime="0.00" timeLoss="3.00" rerouteNo="0" devices="tripinfo_car_14" vType="car" speedFactor="0.99" vaporized=""/>
    <tripinfo id="car_15" depart="36830.00" departLane="-29251749#0_0" departPos="5.10" departSpeed="0.00" departDelay="0.00" arrival="36852.00" arrivalLane="-1232571604_0" arrivalPos="62.71" arrivalSpeed="4.09" duration="22.00" routeLength="101.93" waitingTime="0.00" waitingCount="0" stopTime="0.00" timeLoss="3.46" rerouteNo="0" devices="tripinfo_car_15" vType="car" speedFactor="0.93" vaporized=""/>
    <tripinfo id="car_16" depart="36857.00" departLane="4922743#4_0" departPos="5.10" departSpeed="0.00" departDelay="0.00" arrival="36874.00" arrivalLane="29251749#0_0" arrivalPos="35.37" arrivalSpeed="7.27" duration="17.00" routeLength="104.21" waitingTime="0.00" waitingCount="0" stopTime="0.00" timeLoss="2.05" rerouteNo="0" devices="tripinfo_car_16" vType="car" speedFactor="0.88" vaporized=""/>
    <tripinfo id="car_17" depart="36910.00" departLane="-29251749#0_0" departPos="5.10" departSpeed="0.00" departDelay="0.00" arrival="36927.00" arrivalLane="617654357#1_0" arrivalPos="41.50" arrivalSpeed="7.70" duration="17.00" routeLength="108.41" waitingTime="0.00" waitingCount="0" stopTime="0.00" timeLoss="2.74" rerouteNo="0" devices="tripinfo_car_17" vType="car" speedFactor="0.94" vaporized=""/>
    <tripinfo id="car_18" depart="36945.00" departLane="-617654357#1_0" departPos="5.10" departSpeed="0.00" departDelay="0.00" arrival="36961.00" arrivalLane="29251749#0_0" arrivalPos="35.37" arrivalSpeed="7.54" duration="16.00" routeLength="103.92" waitingTime="0.00" waitingCount="0" stopTime="0.00" timeLoss="2.50" rerouteNo="0" devices="tripinfo_car_18" vType="car" speedFactor="0.94" vaporized=""/>
    <tripinfo id="car_19" depart="37003.00" departLane="237386421_0" departPos="5.10" departSpeed="0.00" departDelay="0.00" arrival="37021.00" arrivalLane="29251749#0_0" arrivalPos="35.37" arrivalSpeed="9.03" duration="18.00" routeLength="107.11" waitingTime="0.00" waitingCount="0" stopTime="0.00" timeLoss="3.07" rerouteNo="0" devices="tripinfo_car_19" vType="car" speedFactor="1.16" vaporized=""/>
    <tripinfo id="car_20" depart="37010.00" departLane="237386421_0" departPos="5.10" departSpeed="0.00" departDelay="0.00" arrival="37030.00" arrivalLane="29251749#0_0" arrivalPos="35.37" arrivalSpeed="8.25" duration="20.00" routeLength="107.11" waitingTime="0.00" waitingCount="0" stopTime="0.00" timeLoss="3.08" rerouteNo="0" devices="tripinfo_car_20" vType="car" speedFactor="1.02" vaporized=""/>
    <tripinfo id="car_21" depart="37034.00" departLane="-617654357#1_0" departPos="5.10" departSpeed="0.00" departDelay="0.00" arrival="37050.00" arrivalLane="29251749#0_0" arrivalPos="35.37" arrivalSpeed="7.68" duration="16.00" routeLength="103.92" waitingTime="0.00" waitingCount="0" stopTime="0.00" timeLoss="3.09" rerouteNo="0" devices="tripinfo_car_21" vType="car" speedFactor="1.01" vaporized=""/>
    <tripinfo id="motorcycle_22" depart="37037.00" departLane="-617654357#1_0" departPos="2.20" departSpeed="0.00" departDelay="0.00" arrival="37062.00" arrivalLane="-1232571604_0" arrivalPos="62.71" arrivalSpeed="5.19" duration="25.00" routeLength="139.29" waitingTime="0.00" waitingCount="0" stopTime="0.00" timeLoss="3.35" rerouteNo="0" devices="tripinfo_motorcycle_22" vType="motorcycle" speedFactor="0.97" vaporized=""/>
    <tripinfo id="car_23" depart="37062.00" departLane="-29251749#0_0" departPos="5.10" departSpeed="0.00" departDelay="0.00" arrival="37079.00" arrivalLane="-4922743#4_0" arrivalPos="59.76" arrivalSpeed="6.89" duration="17.00" routeLength="105.02" waitingTime="0.00" waitingCount="0" stopTime="0.00" timeLoss="2.82" rerouteNo="0" devices="tripinfo_car_23" vType="car" speedFactor="0.89" vaporized=""/>
    <tripinfo id="car_24" depart="37065.00" departLane="-29251749#0_0" departPos="5.10" departSpeed="0.00" departDelay="0.00" arrival="37083.00" arrivalLane="-4922743#4_0" arrivalPos="59.76" arrivalSpeed="6.52" duration="18.00" routeLength="105.02" waitingTime="0.00" waitingCount="0" stopTime="0.00" timeLoss="2.35" rerouteNo="0" devices="tripinfo_car_24" vType="car" speedFactor="0.83" vaporized=""/>
    <tripinfo id="car_25" depart="37111.00" departLane="-617654357#1_0" departPos="5.10" departSpeed="0.00" departDelay="0.00" arrival="37129.00" arrivalLane="29251749#0_0" arrivalPos="35.37" arrivalSpeed="7.20" duration="18.00" routeLength="103.92" waitingTime="0.00" waitingCount="0" stopTime="0.00" timeLoss="2.96" rerouteNo="0" devices="tripinfo_car_25" vType="car" speedFactor="0.87" vaporized=""/>
    <tripinfo id="car_26" depart="37175.00" departLane="-617654357#1_0" departPos="5.10" departSpeed="0.00" departDelay="0.00" arrival="37192.00" arrivalLane="29251749#0_0" arrivalPos="35.37" arrivalSpeed="7.32" duration="17.00" routeLength="103.92" waitingTime="0.00" waitingCount="0" stopTime="0.00" timeLoss="2.60" rerouteNo="0" devices="tripinfo_car_26" vType="car" speedFactor="0.92" vaporized=""/>
    <tripinfo id="car_27" depart="37178.00" departLane="4922743#4_0" departPos="5.10" departSpeed="0.00" departDelay="0.00" arrival="37204.00" arrivalLane="-1232571604_0" arrivalPos="62.71" arrivalSpeed="5.17" duration="26.00" routeLength="131.46" waitingTime="0.00" waitingCount="0" stopTime="0.00" timeLoss="4.15" rerouteNo="0" devices="tripinfo_car_27" vType="car" speedFactor="0.95" vaporized=""/>
    <tripinfo id="car_28" depart="37302.00" departLane="237386421_0" departPos="5.10" departSpeed="0.00" departDelay="0.00" arrival="37324.00" arrivalLane="617654357#1_0" arrivalPos="41.50" arrivalSpeed="9.11" duration="22.00" routeLength="135.78" waitingTime="0.00" waitingCount="0" stopTime="0.00" timeLoss="3.64" rerouteNo="0" devices="tripinfo_car_28" vType="car" speedFactor="1.13" vaporized=""/>
    <tripinfo id="car_29" depart="37341.00" departLane="-29251749#0_0" departPos="5.10" departSpeed="0.00" departDelay="0.00" arrival="37358.00" arrivalLane="617654357#1_0" arrivalPos="41.50" arrivalSpeed="7.09" duration="17.00" routeLength="108.41" waitingTime="0.00" waitingCount="0" stopTime="0.00" timeLoss="2.68" rerouteNo="0" devices="tripinfo_car_29" vType="car" speedFactor="0.93" vaporized=""/>
    <tripinfo id="car_30" depart="37343.00" departLane="-617654357#1_0" departPos="5.10" departSpeed="0.00" departDelay="0.00" arrival="37361.00" arrivalLane="-4922743#4_0" arrivalPos="59.76" arrivalSpeed="9.77" duration="18.00" routeLength="133.18" waitingTime="0.00" waitingCount="0" stopTime="0.00" timeLoss="4.32" rerouteNo="0" devices="tripinfo_car_30" vType="car" speedFactor="1.18" vaporized=""/>
    <tripinfo id="bus_31" depart="37371.00" departLane="-617654357#1_0" departPos="12.10" departSpeed="0.00" departDelay="0.00" arrival="37390.00" arrivalLane="-4922743#4_0" arrivalPos="59.76" arrivalSpeed="7.46" duration="19.00" routeLength="126.18" waitingTime="0.00" waitingCount="0" stopTime="0.00" timeLoss="3.31" rerouteNo="0" devices="tripinfo_bus_31" vType="bus" speedFactor="1.00" vaporized=""/>
    <tripinfo id="car_32" depart="37375.00" departLane="-617654357#1_0" departPos="5.10" departSpeed="0.00" departDelay="0.00" arrival="37390.00" arrivalLane="29251749#0_0" arrivalPos="35.37" arrivalSpeed="8.60" duration="15.00" routeLength="103.92" waitingTime="0.00" waitingCount="0" stopTime="0.00" timeLoss="3.69" rerouteNo="0" devices="tripinfo_car_32" vType="car" speedFactor="1.15" vaporized=""/>
    <tripinfo id="bus_33" depart="37426.00" departLane="237386421_0" departPos="12.10" departSpeed="0.00" departDelay="0.00" arrival="37447.00" arrivalLane="-4922743#4_0" arrivalPos="59.76" arrivalSpeed="8.19" duration="21.00" routeLength="120.17" waitingTime="0.00" waitingCount="0" stopTime="0.00" timeLoss="3.31" rerouteNo="0" devices="tripinfo_bus_33" vType="bus" speedFactor="1.00" vaporized=""/>
    <tripinfo id="car_34" depart="37434.00" departLane="4922743#4_0" departPos="5.10" departSpeed="0.00" departDelay="0.00" arrival="37450.00" arrivalLane="29251749#0_0" arrivalPos="35.37" arrivalSpeed="7.91" duration="16.00" routeLength="104.21" waitingTime="0.00" waitingCount="0" stopTime="0.00" timeLoss="2.80" rerouteNo="0" devices="tripinfo_car_34" vType="car" speedFactor="1.01" vaporized=""/>
    <tripinfo id="car_35" depart="37461.00" departLane="-617654357#1_0" departPos="5.10" departSpeed="0.00" departDelay="0.00" arrival="37475.00" arrivalLane="29251749#0_0" arrivalPos="35.37" arrivalSpeed="9.72" duration="14.00" routeLength="103.92" waitingTime="0.00" waitingCount="0" stopTime="0.00" timeLoss="2.94" rerouteNo="0" devices="tripinfo_car_35" vType="car" speedFactor="1.17" vaporized=""/>
    <tripinfo id="truck_37" depart="37481.00" departLane="4922743#4_0" departPos="7.20" departSpeed="0.00" departDelay="0.00" arrival="37496.00" arrivalLane="29251749#0_0" arrivalPos="35.37" arrivalSpeed="7.56" duration="15.00" routeLength="102.11" waitingTime="0.00" waitingCount="0" stopTime="0.00" timeLoss="2.66" rerouteNo="0" devices="tripinfo_truck_37" vType="truck" speedFactor="1.01" vaporized=""/>
    <tripinfo id="car_38" depart="37485.00" departLane="-617654357#1_0" departPos="5.10" departSpeed="0.00" departDelay="0.00" arrival="37502.00" arrivalLane="29251749#0_0" arrivalPos="35.37" arrivalSpeed="7.87" duration="17.00" routeLength="103.92" waitingTime="0.00" waitingCount="0" stopTime="0.00" timeLoss="3.83" rerouteNo="0" devices="tripinfo_car_38" vType="car" speedFactor="0.97" vaporized=""/>
    <tripinfo id="car_36" depart="37479.00" departLane="-617654357#1_0" departPos="5.10" departSpeed="0.00" departDelay="0.00" arrival="37503.00" arrivalLane="-4922743#4_0" arrivalPos="59.76" arrivalSpeed="7.06" duration="24.00" routeLength="133.18" waitingTime="0.00" waitingCount="0" stopTime="0.00" timeLoss="7.75" rerouteNo="0" devices="tripinfo_car_36" vType="car" speedFactor="0.99" vaporized=""/>
    <tripinfo id="car_39" depart="37502.00" departLane="-29251749#0_0" departPos="5.10" departSpeed="0.00" departDelay="0.00" arrival="37516.00" arrivalLane="-4922743#4_0" arrivalPos="59.76" arrivalSpeed="9.04" duration="14.00" routeLength="105.02" waitingTime="0.00" waitingCount="0" stopTime="0.00" timeLoss="2.54" rerouteNo="0" devices="tripinfo_car_39" vType="car" speedFactor="1.18" vaporized=""/>
    <tripinfo id="car_40" depart="37520.00" departLane="-617654357#1_0" departPos="5.10" departSpeed="0.00" departDelay="0.00" arrival="37535.00" arrivalLane="29251749#0_0" arrivalPos="35.37" arrivalSpeed="8.33" duration="15.00" routeLength="103.92" waitingTime="0.00" waitingCount="0" stopTime="0.00" timeLoss="2.75" rerouteNo="0" devices="tripinfo_car_40" vType="car" speedFactor="1.10" vaporized=""/>
    <tripinfo id="car_41" depart="37582.00" departLane="237386421_0" departPos="5.10" departSpeed="0.00" departDelay="0.00" arrival="37607.00" arrivalLane="-4922743#4_0" arrivalPos="59.76" arrivalSpeed="7.42" duration="25.00" routeLength="127.17" waitingTime="0.00" waitingCount="0" stopTime="0.00" timeLoss="3.27" rerouteNo="0" devices="tripinfo_car_41" vType="car" speedFactor="0.90" vaporized=""/>
    <tripinfo id="car_42" depart="37603.00" departLane="4922743#4_0" departPos="5.10" departSpeed="0.00" departDelay="0.00" arrival="37622.00" arrivalLane="617654357#1_0" arrivalPos="41.50" arrivalSpeed="8.53" duration="19.00" routeLength="126.46" waitingTime="0.00" waitingCount="0" stopTime="0.00" timeLoss="3.87" rerouteNo="0" devices="tripinfo_car_42" vType="car" speedFactor="1.03" vaporized=""/>
    <tripinfo id="car_43" depart="37607.00" departLane="-617654357#1_0" departPos="5.10" departSpeed="0.00" departDelay="0.00" arrival="37627.00" arrivalLane="-4922743#4_0" arrivalPos="59.76" arrivalSpeed="7.37" duration="20.00" routeLength="133.18" waitingTime="0.00" waitingCount="0" stopTime="0.00" timeLoss="2.92" rerouteNo="0" devices="tripinfo_car_43" vType="car" speedFactor="0.96" vaporized=""/>
    <tripinfo id="car_44" depart="37626.00" departLane="-617654357#1_0" departPos="5.10" departSpeed="0.00" departDelay="0.00" arrival="37644.00" arrivalLane="-4922743#4_0" arrivalPos="59.76" arrivalSpeed="8.38" duration="18.00" routeLength="133.18" waitingTime="0.00" waitingCount="0" stopTime="0.00" timeLoss="2.88" rerouteNo="0" devices="tripinfo_car_44" vType="car" speedFactor="1.09" vaporized=""/>
    <tripinfo id="car_45" depart="37652.00" departLane="4922743#4_0" departPos="5.10" departSpeed="0.00" departDelay="0.00" arrival="37676.00" arrivalLane="-1232571604_0" arrivalPos="62.71" arrivalSpeed="4.97" duration="24.00" routeLength="131.46" waitingTime="0.00" waitingCount="0" stopTime="0.00" timeLoss="3.87" rerouteNo="0" devices="tripinfo_car_45" vType="car" speedFactor="1.04" vaporized=""/>
    <tripinfo id="car_46" depart="37704.00" departLane="237386421_0" departPos="5.10" departSpeed="0.00" departDelay="0.00" arrival="37727.00" arrivalLane="617654357#1_0" arrivalPos="41.50" arrivalSpeed="7.94" duration="23.00" routeLength="135.78" waitingTime="0.00" waitingCount="0" stopTime="0.00" timeLoss="3.14" rerouteNo="0" devices="tripinfo_car_46" vType="car" speedFactor="1.04" vaporized=""/>
    <tripinfo id="car_47" depart="37722.00" departLane="237386421_0" departPos="5.10" departSpeed="0.00" departDelay="0.00" arrival="37743.00" arrivalLane="-4922743#4_0" arrivalPos="59.76" arrivalSpeed="8.09" duration="21.00" routeLength="127.17" waitingTime="0.00" waitingCount="0" stopTime="0.00" timeLoss="3.52" rerouteNo="0" devices="tripinfo_car_47" vType="car" speedFactor="1.09" vaporized=""/>
    <tripinfo id="car_48" depart="37724.00" departLane="-617654357#1_0" departPos="5.10" departSpeed="0.00" departDelay="0.00" arrival="37747.00" arrivalLane="-4922743#4_0" arrivalPos="59.76" arrivalSpeed="8.17" duration="23.00" routeLength="133.18" waitingTime="0.00" waitingCount="0" stopTime="0.00" timeLoss="6.05" rerouteNo="0" devices="tripinfo_car_48" vType="car" speedFactor="1.00" vaporized=""/>
    <tripinfo id="car_49" depart="37728.00" departLane="-617654357#1_0" departPos="5.10" departSpeed="0.00" departDelay="0.00" arrival="37748.00" arrivalLane="29251749#0_0" arrivalPos="35.37" arrivalSpeed="7.30" duration="20.00" routeLength="103.92" waitingTime="0.00" waitingCount="0" stopTime="0.00" timeLoss="5.37" rerouteNo="0" devices="tripinfo_car_49" vType="car" speedFactor="0.90" vaporized=""/>
    <tripinfo id="car_50" depart="37743.00" departLane="-617654357#1_0" departPos="5.10" departSpeed="0.00" departDelay="0.00" arrival="37761.00" arrivalLane="29251749#0_0" arrivalPos="35.37" arrivalSpeed="6.68" duration="18.00" routeLength="103.92" waitingTime="0.00" waitingCount="0" stopTime="0.00" timeLoss="3.30" rerouteNo="0" devices="tripinfo_car_50" vType="car" speedFactor="0.88" vaporized=""/>
    <tripinfo id="car_51" depart="37786.00" departLane="237386421_0" departPos="5.10" departSpeed="0.00" departDelay="0.00" arrival="37810.00" arrivalLane="29251749#0_0" arrivalPos="35.37" arrivalSpeed="5.97" duration="24.00" routeLength="107.11" waitingTime="0.00" waitingCount="0" stopTime="0.00" timeLoss="4.17" rerouteNo="0" devices="tripinfo_car_51" vType="car" speedFactor="0.85" vaporized=""/>
    <tripinfo id="car_52" depart="37793.00" departLane="-29251749#0_0" departPos="5.10" departSpeed="0.00" departDelay="0.00" arrival="37818.00" arrivalLane="-1232571604_0" arrivalPos="62.71" arrivalSpeed="4.09" duration="25.00" routeLength="101.93" waitingTime="0.00" waitingCount="0" stopTime="0.00" timeLoss="5.15" rerouteNo="0" devices="tripinfo_car_52" vType="car" speedFactor="0.85" vaporized=""/>
    <tripinfo id="car_53" depart="37799.00" departLane="-617654357#1_0" departPos="5.10" departSpeed="0.00" departDelay="0.00" arrival="37818.00" arrivalLane="-4922743#4_0" arrivalPos="59.76" arrivalSpeed="8.72" duration="19.00" routeLength="133.18" waitingTime="0.00" waitingCount="0" stopTime="0.00" timeLoss="4.33" rerouteNo="0" devices="tripinfo_car_53" vType="car" speedFactor="1.17" vaporized=""/>
    <tripinfo id="car_55" depart="37808.00" departLane="-29251749#0_0" departPos="5.10" departSpeed="0.00" departDelay="0.00" arrival="37823.00" arrivalLane="-4922743#4_0" arrivalPos="59.76" arrivalSpeed="8.23" duration="15.00" routeLength="105.02" waitingTime="0.00" waitingCount="0" stopTime="0.00" timeLoss="2.77" rerouteNo="0" devices="tripinfo_car_55" vType="car" speedFactor="1.10" vaporized=""/>
    <tripinfo id="truck_54" depart="37802.00" departLane="-617654357#1_0" departPos="7.20" departSpeed="0.00" departDelay="2.00" arrival="37826.00" arrivalLane="-4922743#4_0" arrivalPos="59.76" arrivalSpeed="7.47" duration="24.00" routeLength="131.08" waitingTime="2.00" waitingCount="1" stopTime="0.00" timeLoss="7.52" rerouteNo="0" devices="tripinfo_truck_54" vType="truck" speedFactor="1.01" vaporized=""/>
    <tripinfo id="car_56" depart="37814.00" departLane="-617654357#1_0" departPos="5.10" departSpeed="0.00" departDelay="0.00" arrival="37834.00" arrivalLane="-4922743#4_0" arrivalPos="59.76" arrivalSpeed="7.80" duration="20.00" routeLength="133.18" waitingTime="0.00" waitingCount="0" stopTime="0.00" timeLoss="3.34" rerouteNo="0" devices="tripinfo_car_56" vType="car" speedFactor="1.00" vaporized=""/>
    <tripinfo id="car_57" depart="37828.00" departLane="-617654357#1_0" departPos="5.10" departSpeed="0.00" departDelay="0.00" arrival="37854.00" arrivalLane="-1232571604_0" arrivalPos="62.71" arrivalSpeed="5.01" duration="26.00" routeLength="136.39" waitingTime="0.00" waitingCount="0" stopTime="0.00" timeLoss="4.61" rerouteNo="0" devices="tripinfo_car_57" vType="car" speedFactor="1.00" vaporized=""/>
    <tripinfo id="car_58" depart="37833.00" departLane="-617654357#1_0" departPos="5.10" departSpeed="0.00" departDelay="0.00" arrival="37861.00" arrivalLane="-1232571604_0" arrivalPos="62.71" arrivalSpeed="3.92" duration="28.00" routeLength="136.39" waitingTime="0.00" waitingCount="0" stopTime="0.00" timeLoss="4.69" rerouteNo="0" devices="tripinfo_car_58" vType="car" speedFactor="0.90" vaporized=""/>
    <tripinfo id="bus_59" depart="37854.00" departLane="-617654357#1_0" departPos="12.10" departSpeed="0.00" departDelay="0.00" arrival="37873.00" arrivalLane="-4922743#4_0" arrivalPos="59.76" arrivalSpeed="8.20" duration="19.00" routeLength="126.18" waitingTime="0.00" waitingCount="0" stopTime="0.00" timeLoss="3.00" rerouteNo="0" devices="tripinfo_bus_59" vType="bus" speedFactor="1.00" vaporized=""/>
    <tripinfo id="car_60" depart="37867.00" departLane="-617654357#1_0" departPos="5.10" departSpeed="0.00" departDelay="0.00" arrival="37885.00" arrivalLane="-4922743#4_0" arrivalPos="59.76" arrivalSpeed="8.73" duration="18.00" routeLength="133.18" waitingTime="0.00" waitingCount="0" stopTime="0.00" timeLoss="3.88" rerouteNo="0" devices="tripinfo_car_60" vType="car" speedFactor="1.14" vaporized=""/>
    <tripinfo id="car_61" depart="37885.00" departLane="4922743#4_0" departPos="5.10" departSpeed="0.00" departDelay="1.00" arrival="37900.00" arrivalLane="29251749#0_0" arrivalPos="35.37" arrivalSpeed="8.47" duration="15.00" routeLength="104.21" waitingTime="0.00" waitingCount="0" stopTime="0.00" timeLoss="2.31" rerouteNo="0" devices="tripinfo_car_61" vType="car" speedFactor="1.02" vaporized=""/>
    <tripinfo id="car_62" depart="37886.00" departLane="237386421_0" departPos="5.10" departSpeed="0.00" departDelay="0.00" arrival="37907.00" arrivalLane="29251749#0_0" arrivalPos="35.37" arrivalSpeed="7.78" duration="21.00" routeLength="107.11" waitingTime="0.00" waitingCount="0" stopTime="0.00" timeLoss="3.06" rerouteNo="0" devices="tripinfo_car_62" vType="car" speedFactor="0.97" vaporized=""/>
    <tripinfo id="car_63" depart="37895.00" departLane="-617654357#1_0" departPos="5.10" departSpeed="0.00" departDelay="0.00" arrival="37919.00" arrivalLane="-1232571604_0" arrivalPos="62.71" arrivalSpeed="5.52" duration="24.00" routeLength="136.39" waitingTime="0.00" waitingCount="0" stopTime="0.00" timeLoss="4.43" rerouteNo="0" devices="tripinfo_car_63" vType="car" speedFactor="1.08" vaporized=""/>
    <tripinfo id="car_64" depart="37902.00" departLane="4922743#4_0" departPos="5.10" departSpeed="0.00" departDelay="0.00" arrival="37919.00" arrivalLane="617654357#1_0" arrivalPos="41.50" arrivalSpeed="9.00" duration="17.00" routeLength="126.46" waitingTime="0.00" waitingCount="0" stopTime="0.00" timeLoss="3.22" rerouteNo="0" devices="tripinfo_car_64" vType="car" speedFactor="1.12" vaporized=""/>
    <tripinfo id="car_65" depart="37905.00" departLane="237386421_0" departPos="5.10" departSpeed="0.00" departDelay="0.00" arrival="37927.00" arrivalLane="-4922743#4_0" arrivalPos="59.76" arrivalSpeed="7.73" duration="22.00" routeLength="127.17" waitingTime="0.00" waitingCount="0" stopTime="0.00" timeLoss="2.67" rerouteNo="0" devices="tripinfo_car_65" vType="car" speedFactor="1.02" vaporized=""/>
    <tripinfo id="car_66" depart="37925.00" departLane="-617654357#1_0" departPos="5.10" departSpeed="0.00" departDelay="0.00" arrival="37941.00" arrivalLane="29251749#0_0" arrivalPos="35.37" arrivalSpeed="7.91" duration="16.00" routeLength="103.92" waitingTime="0.00" waitingCount="0" stopTime="0.00" timeLoss="2.96" rerouteNo="0" devices="tripinfo_car_66" vType="car" speedFactor="0.99" vaporized=""/>
    <tripinfo id="truck_67" depart="37968.00" departLane="-617654357#1_0" departPos="7.20" departSpeed="0.00" departDelay="0.00" arrival="37988.00" arrivalLane="-4922743#4_0" arrivalPos="59.76" arrivalSpeed="7.72" duration="20.00" routeLength="131.08" waitingTime="0.00" waitingCount="0" stopTime="0.00" timeLoss="3.08" rerouteNo="0" devices="tripinfo_truck_67" vType="truck" speedFactor="0.97" vaporized=""/>
    <tripinfo id="car_68" depart="37984.00" departLane="-617654357#1_0" departPos="5.10" departSpeed="0.00" departDelay="0.00" arrival="38012.00" arrivalLane="-4922743#4_0" arrivalPos="59.76" arrivalSpeed="6.19" duration="28.00" routeLength="133.18" waitingTime="0.00" waitingCount="0" stopTime="0.00" timeLoss="9.02" rerouteNo="0" devices="tripinfo_car_68" vType="car" speedFactor="0.88" vaporized=""/>
    <tripinfo id="bus_69" depart="37988.00" departLane="4922743#4_0" departPos="12.10" departSpeed="0.00" departDelay="1.00" arrival="38012.00" arrivalLane="-1232571604_0" arrivalPos="62.71" arrivalSpeed="4.28" duration="24.00" routeLength="124.46" waitingTime="0.00" waitingCount="0" stopTime="0.00" timeLoss="4.14" rerouteNo="0" devices="tripinfo_bus_69" vType="bus" speedFactor="1.00" vaporized=""/>
    <tripinfo id="car_70" depart="38006.00" departLane="237386421_0" departPos="5.10" departSpeed="0.00" departDelay="0.00" arrival="38031.00" arrivalLane="-4922743#4_0" arrivalPos="59.76" arrivalSpeed="7.53" duration="25.00" routeLength="127.17" waitingTime="0.00" waitingCount="0" stopTime="0.00" timeLoss="3.85" rerouteNo="0" devices="tripinfo_car_70" vType="car" speedFactor="0.91" vaporized=""/>
    <tripinfo id="bus_73" depart="38020.00" departLane="-617654357#1_0" departPos="12.10" departSpeed="0.00" departDelay="0.00" arrival="38036.00" arrivalLane="29251749#0_0" arrivalPos="35.37" arrivalSpeed="7.48" duration="16.00" routeLength="96.92" waitingTime="0.00" waitingCount="0" stopTime="0.00" timeLoss="3.64" rerouteNo="0" devices="tripinfo_bus_73" vType="bus" speedFactor="1.00" vaporized=""/>