<?xml version="1.0" encoding="UTF-8"?>

<!-- generated on 2025-05-18 04:44:56 by Eclipse SUMO sumo Version 1.21.0
<sumoConfiguration xmlns:xsi="http://www.w3.org/2001/XMLSchema-instance" xsi:noNamespaceSchemaLocation="http://sumo.dlr.de/xsd/sumoConfiguration.xsd">

    <input>
        <net-file value="smaller.net.xml"/>
        <route-files value="v5_dir_routes.rou.xml"/>
        <additional-files value="lane_emissions_output.add.xml"/>
    </input>

    <output>
        <tripinfo-output value="tripinfo-v4.xml"/>
    </output>

</sumoConfiguration>
-->

<tripinfos xmlns:xsi="http://www.w3.org/2001/XMLSchema-instance" xsi:noNamespaceSchemaLocation="http://sumo.dlr.de/xsd/tripinfo_file.xsd">
    <tripinfo id="car_1000000000" depart="23700.00" departLane="4922743#4_0" departPos="5.10" departSpeed="0.00" departDelay="0.00" arrival="23715.00" arrivalLane="29251749#0_0" arrivalPos="35.37" arrivalSpeed="8.77" duration="15.00" routeLength="104.21" waitingTime="0.00" waitingCount="0" stopTime="0.00" timeLoss="2.77" rerouteNo="0" devices="tripinfo_car_1000000000" vType="car" speedFactor="1.06" vaporized=""/>
    <tripinfo id="motorcycle_1000000001" depart="23702.00" departLane="-617654357#1_0" departPos="2.20" departSpeed="0.00" departDelay="0.00" arrival="23724.00" arrivalLane="-4922743#4_0" arrivalPos="59.76" arrivalSpeed="6.76" duration="22.00" routeLength="136.08" waitingTime="0.00" waitingCount="0" stopTime="0.00" timeLoss="3.80" rerouteNo="0" devices="tripinfo_motorcycle_1000000001" vType="motorcycle" speedFactor="0.94" vaporized=""/>
    <tripinfo id="car_1000000002" depart="23719.00" departLane="237386421_0" departPos="5.10" departSpeed="0.00" departDelay="0.00" arrival="23742.00" arrivalLane="617654357#1_0" arrivalPos="41.50" arrivalSpeed="7.85" duration="23.00" routeLength="135.78" waitingTime="0.00" waitingCount="0" stopTime="0.00" timeLoss="3.21" rerouteNo="0" devices="tripinfo_car_1000000002" vType="car" speedFactor="1.01" vaporized=""/>
    <tripinfo id="motorcycle_1000000003" depart="23728.00" departLane="4922743#4_0" departPos="2.20" departSpeed="0.00" departDelay="0.00" arrival="23743.00" arrivalLane="29251749#0_0" arrivalPos="35.37" arrivalSpeed="8.24" duration="15.00" routeLength="107.11" waitingTime="0.00" waitingCount="0" stopTime="0.00" timeLoss="2.32" rerouteNo="0" devices="tripinfo_motorcycle_1000000003" vType="motorcycle" speedFactor="1.08" vaporized=""/>
    <tripinfo id="car_1000000004" depart="23729.00" departLane="-617654357#1_0" departPos="5.10" departSpeed="0.00" departDelay="0.00" arrival="23753.00" arrivalLane="-1232571604_0" arrivalPos="62.71" arrivalSpeed="4.95" duration="24.00" routeLength="136.39" waitingTime="0.00" waitingCount="0" stopTime="0.00" timeLoss="3.90" rerouteNo="0" devices="tripinfo_car_1000000004" vType="car" speedFactor="1.03" vaporized=""/>
    <tripinfo id="motorcycle_1000000005" depart="23735.00" departLane="4922743#4_0" departPos="2.20" departSpeed="0.00" departDelay="0.00" arrival="23758.00" arrivalLane="617654357#1_0" arrivalPos="41.50" arrivalSpeed="6.28" duration="23.00" routeLength="129.36" waitingTime="0.00" waitingCount="0" stopTime="0.00" timeLoss="3.36" rerouteNo="0" devices="tripinfo_motorcycle_1000000005" vType="motorcycle" speedFactor="0.83" vaporized=""/>
    <tripinfo id="motorcycle_1000000007" depart="23777.00" departLane="237386421_0" departPos="2.20" departSpeed="0.00" departDelay="0.00" arrival="23799.00" arrivalLane="-4922743#4_0" arrivalPos="59.76" arrivalSpeed="8.13" duration="22.00" routeLength="130.07" waitingTime="0.00" waitingCount="0" stopTime="0.00" timeLoss="2.86" rerouteNo="0" devices="tripinfo_motorcycle_1000000007" vType="motorcycle" speedFactor="1.05" vaporized=""/>
    <tripinfo id="car_1000000008" depart="23783.00" departLane="-617654357#1_0" departPos="5.10" departSpeed="0.00" departDelay="0.00" arrival="23810.00" arrivalLane="-1232571604_0" arrivalPos="62.71" arrivalSpeed="3.77" duration="27.00" routeLength="136.39" waitingTime="0.00" waitingCount="0" stopTime="0.00" timeLoss="3.65" rerouteNo="0" devices="tripinfo_car_1000000008" vType="car" speedFactor="0.89" vaporized=""/>
    <tripinfo id="car_1000000009" depart="23793.00" departLane="4922743#4_0" departPos="5.10" departSpeed="0.00" departDelay="0.00" arrival="23813.00" arrivalLane="617654357#1_0" arrivalPos="41.50" arrivalSpeed="7.49" duration="20.00" routeLength="126.46" waitingTime="0.00" waitingCount="0" stopTime="0.00" timeLoss="3.49" rerouteNo="0" devices="tripinfo_car_1000000009" vType="car" speedFactor="0.94" vaporized=""/>
    <tripinfo id="car_1000000010" depart="23796.00" departLane="237386421_0" departPos="5.10" departSpeed="0.00" departDelay="0.00" arrival="23824.00" arrivalLane="617654357#1_0" arrivalPos="41.50" arrivalSpeed="6.76" duration="28.00" routeLength="135.78" waitingTime="0.00" waitingCount="0" stopTime="0.00" timeLoss="4.54" rerouteNo="0" devices="tripinfo_car_1000000010" vType="car" speedFactor="0.86" vaporized=""/>
    <tripinfo id="motorcycle_1000000011" depart="23808.00" departLane="237386421_0" departPos="2.20" departSpeed="0.00" departDelay="0.00" arrival="23830.00" arrivalLane="617654357#1_0" arrivalPos="41.50" arrivalSpeed="8.57" duration="22.00" routeLength="138.68" waitingTime="0.00" waitingCount="0" stopTime="0.00" timeLoss="3.18" rerouteNo="0" devices="tripinfo_motorcycle_1000000011" vType="motorcycle" speedFactor="1.09" vaporized=""/>
    <tripinfo id="car_1000000012" depart="23811.00" departLane="-617654357#1_0" departPos="5.10" departSpeed="0.00" departDelay="0.00" arrival="23832.00" arrivalLane="-4922743#4_0" arrivalPos="59.76" arrivalSpeed="7.66" duration="21.00" routeLength="133.18" waitingTime="0.00" waitingCount="0" stopTime="0.00" timeLoss="5.31" rerouteNo="0" devices="tripinfo_car_1000000012" vType="car" speedFactor="1.03" vaporized=""/>
    <tripinfo id="car_1000000013" depart="23814.00" departLane="-617654357#1_0" departPos="5.10" departSpeed="0.00" departDelay="3.00" arrival="23833.00" arrivalLane="29251749#0_0" arrivalPos="35.37" arrivalSpeed="8.05" duration="19.00" routeLength="103.92" waitingTime="0.00" waitingCount="0" stopTime="0.00" timeLoss="6.41" rerouteNo="0" devices="tripinfo_car_1000000013" vType="car" speedFactor="1.05" vaporized=""/>
    <tripinfo id="bus_1000000018" depart="23859.00" departLane="4922743#4_0" departPos="12.10" departSpeed="0.00" departDelay="0.00" arrival="23873.00" arrivalLane="29251749#0_0" arrivalPos="35.37" arrivalSpeed="8.09" duration="14.00" routeLength="97.21" waitingTime="0.00" waitingCount="0" stopTime="0.00" timeLoss="2.19" rerouteNo="0" devices="tripinfo_bus_1000000018" vType="bus" speedFactor="1.00" vaporized=""/>
    <tripinfo id="bus_1000000017" depart="23859.00" departLane="-617654357#1_0" departPos="12.10" departSpeed="0.00" departDelay="0.00" arrival="23880.00" arrivalLane="29251749#0_0" arrivalPos="35.37" arrivalSpeed="8.27" duration="21.00" routeLength="96.92" waitingTime="2.00" waitingCount="1" stopTime="0.00" timeLoss="8.67" rerouteNo="0" devices="tripinfo_bus_1000000017" vType="bus" speedFactor="1.00" vaporized=""/>
    <tripinfo id="motorcycle_1000000019" depart="23862.00" departLane="-617654357#1_0" departPos="2.20" departSpeed="0.00" departDelay="2.00" arrival="23893.00" arrivalLane="-1232571604_0" arrivalPos="62.71" arrivalSpeed="6.05" duration="31.00" routeLength="139.29" waitingTime="0.00" waitingCount="0" stopTime="0.00" timeLoss="11.83" rerouteNo="0" devices="tripinfo_motorcycle_1000000019" vType="motorcycle" speedFactor="1.12" vaporized=""/>
    <tripinfo id="motorcycle_1000000021" depart="23891.00" departLane="4922743#4_0" departPos="2.20" departSpeed="0.00" departDelay="0.00" arrival="23907.00" arrivalLane="29251749#0_0" arrivalPos="35.37" arrivalSpeed="7.23" duration="16.00" routeLength="107.11" waitingTime="0.00" waitingCount="0" stopTime="0.00" timeLoss="2.37" rerouteNo="0" devices="tripinfo_motorcycle_1000000021" vType="motorcycle" speedFactor="0.99" vaporized=""/>
    <tripinfo id="car_1000000022" depart="23899.00" departLane="4922743#4_0" departPos="5.10" departSpeed="0.00" departDelay="0.00" arrival="23916.00" arrivalLane="29251749#0_0" arrivalPos="35.37" arrivalSpeed="7.30" duration="17.00" routeLength="104.21" waitingTime="0.00" waitingCount="0" stopTime="0.00" timeLoss="2.65" rerouteNo="0" devices="tripinfo_car_1000000022" vType="car" speedFactor="0.93" vaporized=""/>
    <tripinfo id="car_1000000024" depart="23917.00" departLane="237386421_0" departPos="5.10" departSpeed="0.00" departDelay="0.00" arrival="23940.00" arrivalLane="29251749#0_0" arrivalPos="35.37" arrivalSpeed="6.27" duration="23.00" routeLength="107.11" waitingTime="0.00" waitingCount="0" stopTime="0.00" timeLoss="3.70" rerouteNo="0" devices="tripinfo_car_1000000024" vType="car" speedFactor="0.88" vaporized=""/>
    <tripinfo id="motorcycle_1000000028" depart="23933.00" departLane="-29251749#0_0" departPos="2.20" departSpeed="0.00" departDelay="0.00" arrival="23950.00" arrivalLane="-4922743#4_0" arrivalPos="59.76" arrivalSpeed="7.12" duration="17.00" routeLength="107.92" waitingTime="0.00" waitingCount="0" stopTime="0.00" timeLoss="2.97" rerouteNo="0" devices="tripinfo_motorcycle_1000000028" vType="motorcycle" speedFactor="0.94" vaporized=""/>
    <tripinfo id="car_1000000026" depart="23928.00" departLane="237386421_0" departPos="5.10" departSpeed="0.00" departDelay="0.00" arrival="23953.00" arrivalLane="-4922743#4_0" arrivalPos="59.76" arrivalSpeed="7.29" duration="25.00" routeLength="127.17" waitingTime="0.00" waitingCount="0" stopTime="0.00" timeLoss="4.22" rerouteNo="0" devices="tripinfo_car_1000000026" vType="car" speedFactor="0.94" vaporized=""/>
    <tripinfo id="car_1000000029" depart="23945.00" departLane="4922743#4_0" departPos="5.10" departSpeed="0.00" departDelay="0.00" arrival="23962.00" arrivalLane="617654357#1_0" arrivalPos="41.50" arrivalSpeed="9.65" duration="17.00" routeLength="126.46" waitingTime="0.00" waitingCount="0" stopTime="0.00" timeLoss="3.48" rerouteNo="0" devices="tripinfo_car_1000000029" vType="car" speedFactor="1.16" vaporized=""/>
    <tripinfo id="motorcycle_1000000030" depart="23947.00" departLane="4922743#4_0" departPos="2.20" departSpeed="0.00" departDelay="2.00" arrival="23963.00" arrivalLane="29251749#0_0" arrivalPos="35.37" arrivalSpeed="7.20" duration="16.00" routeLength="107.11" waitingTime="0.00" waitingCount="0" stopTime="0.00" timeLoss="3.14" rerouteNo="0" devices="tripinfo_motorcycle_1000000030" vType="motorcycle" speedFactor="1.02" vaporized=""/>
    <tripinfo id="motorcycle_1000000032" depart="23948.00" departLane="-29251749#0_0" departPos="2.20" departSpeed="0.00" departDelay="0.00" arrival="23964.00" arrivalLane="-4922743#4_0" arrivalPos="59.76" arrivalSpeed="7.76" duration="16.00" routeLength="107.92" waitingTime="0.00" waitingCount="0" stopTime="0.00" timeLoss="2.65" rerouteNo="0" devices="tripinfo_motorcycle_1000000032" vType="motorcycle" speedFactor="0.97" vaporized=""/>
    <tripinfo id="truck_1000000031" depart="23951.00" departLane="4922743#4_0" departPos="7.20" departSpeed="0.00" departDelay="6.00" arrival="23975.00" arrivalLane="-1232571604_0" arrivalPos="62.71" arrivalSpeed="5.46" duration="24.00" routeLength="129.36" waitingTime="0.00" waitingCount="0" stopTime="0.00" timeLoss="3.82" rerouteNo="0" devices="tripinfo_truck_1000000031" vType="truck" speedFactor="1.01" vaporized=""/>
    <tripinfo id="motorcycle_1000000033" depart="23949.00" departLane="237386421_0" departPos="2.20" departSpeed="0.00" departDelay="0.00" arrival="23977.00" arrivalLane="617654357#1_0" arrivalPos="41.50" arrivalSpeed="6.29" duration="28.00" routeLength="138.68" waitingTime="0.00" waitingCount="0" stopTime="0.00" timeLoss="4.20" rerouteNo="0" devices="tripinfo_motorcycle_1000000033" vType="motorcycle" speedFactor="0.89" vaporized=""/>
    <tripinfo id="car_1000000034" depart="23971.00" departLane="-617654357#1_0" departPos="5.10" departSpeed="0.00" departDelay="0.00" arrival="23994.00" arrivalLane="-4922743#4_0" arrivalPos="59.76" arrivalSpeed="5.71" duration="23.00" routeLength="133.18" waitingTime="0.00" waitingCount="0" stopTime="0.00" timeLoss="3.39" rerouteNo="0" devices="tripinfo_car_1000000034" vType="car" speedFactor="0.83" vaporized=""/>
    <tripinfo id="truck_1000000038" depart="23983.00" departLane="4922743#4_0" departPos="7.20" departSpeed="0.00" departDelay="0.00" arrival="23998.00" arrivalLane="29251749#0_0" arrivalPos="35.37" arrivalSpeed="7.67" duration="15.00" routeLength="102.11" waitingTime="0.00" waitingCount="0" stopTime="0.00" timeLoss="2.28" rerouteNo="0" devices="tripinfo_truck_1000000038" vType="truck" speedFactor="0.97" vaporized=""/>
    <tripinfo id="motorcycle_1000000035" depart="23973.00" departLane="-617654357#1_0" departPos="2.20" departSpeed="0.00" departDelay="2.00" arrival="24003.00" arrivalLane="-1232571604_0" arrivalPos="62.71" arrivalSpeed="3.58" duration="30.00" routeLength="139.29" waitingTime="0.00" waitingCount="0" stopTime="0.00" timeLoss="5.37" rerouteNo="0" devices="tripinfo_motorcycle_1000000035" vType="motorcycle" speedFactor="0.87" vaporized=""/>
    <tripinfo id="car_1000000036" depart="23980.00" departLane="237386421_0" departPos="5.10" departSpeed="0.00" departDelay="0.00" arrival="24006.00" arrivalLane="617654357#1_0" arrivalPos="41.50" arrivalSpeed="6.47" duration="26.00" routeLength="135.78" waitingTime="0.00" waitingCount="0" stopTime="0.00" timeLoss="3.44" rerouteNo="0" devices="tripinfo_car_1000000036" vType="car" speedFactor="0.92" vaporized=""/>
    <tripinfo id="bus_1000000039" depart="23992.00" departLane="-617654357#1_0" departPos="12.10" departSpeed="0.00" departDelay="0.00" arrival="24007.00" arrivalLane="29251749#0_0" arrivalPos="35.37" arrivalSpeed="7.95" duration="15.00" routeLength="96.92" waitingTime="0.00" waitingCount="0" stopTime="0.00" timeLoss="2.70" rerouteNo="0" devices="tripinfo_bus_1000000039" vType="bus" speedFactor="1.00" vaporized=""/>
    <tripinfo id="car_1000000042" depart="24052.00" departLane="4922743#4_0" departPos="5.10" departSpeed="0.00" departDelay="0.00" arrival="24069.00" arrivalLane="617654357#1_0" arrivalPos="41.50" arrivalSpeed="8.90" duration="17.00" routeLength="126.46" waitingTime="0.00" waitingCount="0" stopTime="0.00" timeLoss="3.21" rerouteNo="0" devices="tripinfo_car_1000000042" vType="car" speedFactor="1.13" vaporized=""/>
    <tripinfo id="car_1000000044" depart="24066.00" departLane="4922743#4_0" departPos="5.10" departSpeed="0.00" departDelay="0.00" arrival="24082.00" arrivalLane="29251749#0_0" arrivalPos="35.37" arrivalSpeed="7.30" duration="16.00" routeLength="104.21" waitingTime="0.00" waitingCount="0" stopTime="0.00" timeLoss="2.10" rerouteNo="0" devices="tripinfo_car_1000000044" vType="car" speedFactor="0.93" vaporized=""/>
    <tripinfo id="bus_1000000046" depart="24076.00" departLane="4922743#4_0" departPos="12.10" departSpeed="0.00" departDelay="0.00" arrival="24091.00" arrivalLane="29251749#0_0" arrivalPos="35.37" arrivalSpeed="8.15" duration="15.00" routeLength="97.21" waitingTime="0.00" waitingCount="0" stopTime="0.00" timeLoss="2.39" rerouteNo="0" devices="tripinfo_bus_1000000046" vType="bus" speedFactor="1.00" vaporized=""/>
    <tripinfo id="motorcycle_1000000049" depart="24081.00" departLane="-617654357#1_0" departPos="2.20" departSpeed="0.00" departDelay="0.00" arrival="24104.00" arrivalLane="-1232571604_0" arrivalPos="62.71" arrivalSpeed="5.89" duration="23.00" routeLength="139.29" waitingTime="0.00" waitingCount="0" stopTime="0.00" timeLoss="4.79" rerouteNo="0" devices="tripinfo_motorcycle_1000000049" vType="motorcycle" speedFactor="1.18" vaporized=""/>
    <tripinfo id="motorcycle_1000000052" depart="24090.00" departLane="-617654357#1_0" departPos="2.20" departSpeed="0.00" departDelay="0.00" arrival="24105.00" arrivalLane="29251749#0_0" arrivalPos="35.37" arrivalSpeed="9.52" duration="15.00" routeLength="106.82" waitingTime="0.00" waitingCount="0" stopTime="0.00" timeLoss="3.45" rerouteNo="0" devices="tripinfo_motorcycle_1000000052" vType="motorcycle" speedFactor="1.15" vaporized=""/>
    <tripinfo id="motorcycle_1000000056" depart="24111.00" departLane="4922743#4_0" departPos="2.20" departSpeed="0.00" departDelay="0.00" arrival="24125.00" arrivalLane="29251749#0_0" arrivalPos="35.37" arrivalSpeed="9.04" duration="14.00" routeLength="107.11" waitingTime="0.00" waitingCount="0" stopTime="0.00" timeLoss="2.85" rerouteNo="0" devices="tripinfo_motorcycle_1000000056" vType="motorcycle" speedFactor="1.17" vaporized=""/>
    <tripinfo id="car_1000000055" depart="24110.00" departLane="-617654357#1_0" departPos="5.10" departSpeed="0.00" departDelay="0.00" arrival="24129.00" arrivalLane="29251749#0_0" arrivalPos="35.37" arrivalSpeed="7.27" duration="19.00" routeLength="103.92" waitingTime="0.00" waitingCount="0" stopTime="0.00" timeLoss="6.32" rerouteNo="0" devices="tripinfo_car_1000000055" vType="car" speedFactor="1.01" vaporized=""/>
    <tripinfo id="car_1000000058" depart="24121.00" departLane="4922743#4_0" departPos="5.10" departSpeed="0.00" departDelay="0.00" arrival="24137.00" arrivalLane="29251749#0_0" arrivalPos="35.37" arrivalSpeed="8.09" duration="16.00" routeLength="104.21" waitingTime="0.00" waitingCount="0" stopTime="0.00" timeLoss="2.50" rerouteNo="0" devices="tripinfo_car_1000000058" vType="car" speedFactor="0.99" vaporized=""/>
    <tripinfo id="car_1000000059" depart="24124.00" departLane="4922743#4_0" departPos="5.10" departSpeed="0.00" departDelay="2.00" arrival="24143.00" arrivalLane="617654357#1_0" arrivalPos="41.50" arrivalSpeed="7.78" duration="19.00" routeLength="126.46" waitingTime="0.00" waitingCount="0" stopTime="0.00" timeLoss="3.07" rerouteNo="0" devices="tripinfo_car_1000000059" vType="car" speedFactor="1.02" vaporized=""/>
    <tripinfo id="bus_1000000061" depart="24128.00" departLane="4922743#4_0" departPos="12.10" departSpeed="0.00" departDelay="1.00" arrival="24143.00" arrivalLane="29251749#0_0" arrivalPos="35.37" arrivalSpeed="8.13" duration="15.00" routeLength="97.21" waitingTime="0.00" waitingCount="0" stopTime="0.00" timeLoss="2.38" rerouteNo="0" devices="tripinfo_bus_1000000061" vType="bus" speedFactor="1.00" vaporized=""/>
    <tripinfo id="motorcycle_1000000062" depart="24130.00" departLane="4922743#4_0" departPos="2.20" departSpeed="0.00" departDelay="0.00" arrival="24145.00" arrivalLane="29251749#0_0" arrivalPos="35.37" arrivalSpeed="9.60" duration="15.00" routeLength="107.11" waitingTime="0.00" waitingCount="0" stopTime="0.00" timeLoss="3.89" rerouteNo="0" devices="tripinfo_motorcycle_1000000062" vType="motorcycle" speedFactor="1.18" vaporized=""/>
    <tripinfo id="motorcycle_1000000063" depart="24131.00" departLane="237386421_0" departPos="2.20" departSpeed="0.00" departDelay="0.00" arrival="24152.00" arrivalLane="-4922743#4_0" arrivalPos="59.76" arrivalSpeed="7.98" duration="21.00" routeLength="130.07" waitingTime="0.00" waitingCount="0" stopTime="0.00" timeLoss="3.52" rerouteNo="0" devices="tripinfo_motorcycle_1000000063" vType="motorcycle" speedFactor="1.10" vaporized=""/>
    <tripinfo id="motorcycle_1000000064" depart="24143.00" departLane="-29251749#0_0" departPos="2.20" departSpeed="0.00" departDelay="1.00" arrival="24161.00" arrivalLane="-4922743#4_0" arrivalPos="59.76" arrivalSpeed="7.23" duration="18.00" routeLength="107.92" waitingTime="0.00" waitingCount="0" stopTime="0.00" timeLoss="2.98" rerouteNo="0" devices="tripinfo_motorcycle_1000000064" vType="motorcycle" speedFactor="0.90" vaporized=""/>
    <tripinfo id="car_1000000060" depart="24125.00" departLane="-617654357#1_0" departPos="5.10" departSpeed="0.00" departDelay="0.00" arrival="24163.00" arrivalLane="-4922743#4_0" arrivalPos="59.76" arrivalSpeed="8.03" duration="38.00" routeLength="133.18" waitingTime="15.00" waitingCount="1" stopTime="0.00" timeLoss="20.69" rerouteNo="0" devices="tripinfo_car_1000000060" vType="car" speedFactor="0.97" vaporized=""/>
    <tripinfo id="motorcycle_1000000065" depart="24168.00" departLane="237386421_0" departPos="2.20" departSpeed="0.00" departDelay="0.00" arrival="24192.00" arrivalLane="617654357#1_0" arrivalPos="41.50" arrivalSpeed="7.92" duration="24.00" routeLength="138.68" waitingTime="0.00" waitingCount="0" stopTime="0.00" timeLoss="3.80" rerouteNo="0" devices="tripinfo_motorcycle_1000000065" vType="motorcycle" speedFactor="1.03" vaporized=""/>
    <tripinfo id="car_1000000067" depart="24215.00" departLane="4922743#4_0" departPos="5.10" departSpeed="0.00" departDelay="0.00" arrival="24231.00" arrivalLane="29251749#0_0" arrivalPos="35.37" arrivalSpeed="7.13" duration="16.00" routeLength="104.21" waitingTime="0.00" waitingCount="0" stopTime="0.00" timeLoss="2.44" rerouteNo="0" devices="tripinfo_car_1000000067" vType="car" speedFactor="0.96" vaporized=""/>
    <tripinfo id="car_1000000068" depart="24224.00" departLane="4922743#4_0" departPos="5.10" departSpeed="0.00" departDelay="0.00" arrival="24242.00" arrivalLane="617654357#1_0" arrivalPos="41.50" arrivalSpeed="7.96" duration="18.00" routeLength="126.46" waitingTime="0.00" waitingCount="0" stopTime="0.00" timeLoss="3.15" rerouteNo="0" devices="tripinfo_car_1000000068" vType="car" speedFactor="1.09" vaporized=""/>
    <tripinfo id="motorcycle_1000000069" depart="24225.00" departLane="-617654357#1_0" departPos="2.20" departSpeed="0.00" departDelay="0.00" arrival="24250.00" arrivalLane="-1232571604_0" arrivalPos="62.71" arrivalSpeed="5.05" duration="25.00" routeLength="139.29" waitingTime="0.00" waitingCount="0" stopTime="0.00" timeLoss="4.35" rerouteNo="0" devices="tripinfo_motorcycle_1000000069" vType="motorcycle" speedFactor="1.04" vaporized=""/>
    <tripinfo id="motorcycle_1000000071" depart="24238.00" departLane="4922743#4_0" departPos="2.20" departSpeed="0.00" departDelay="0.00" arrival="24254.00" arrivalLane="29251749#0_0" arrivalPos="35.37" arrivalSpeed="8.19" duration="16.00" routeLength="107.11" waitingTime="0.00" waitingCount="0" stopTime="0.00" timeLoss="2.85" rerouteNo="0" devices="tripinfo_motorcycle_1000000071" vType="motorcycle" speedFactor="1.04" vaporized=""/>
    <tripinfo id="bus_1000000072" depart="24248.00" departLane="-617654357#1_0" departPos="12.10" departSpeed="0.00" departDelay="0.00" arrival="24263.00" arrivalLane="29251749#0_0" arrivalPos="35.37" arrivalSpeed="7.64" duration="15.00" routeLength="96.92" waitingTime="0.00" waitingCount="0" stopTime="0.00" timeLoss="2.79" rerouteNo="0" devices="tripinfo_bus_1000000072" vType="bus" speedFactor="1.00" vaporized=""/>
    <tripinfo id="car_1000000073" depart="24249.00" departLane="-29251749#0_0" departPos="5.10" departSpeed="0.00" departDelay="0.00" arrival="24264.00" arrivalLane="-4922743#4_0" arrivalPos="59.76" arrivalSpeed="8.90" duration="15.00" routeLength="105.02" waitingTime="0.00" waitingCount="0" stopTime="0.00" timeLoss="2.65" rerouteNo="0" devices="tripinfo_car_1000000073" vType="car" speedFactor="1.09" vaporized=""/>
    <tripinfo id="car_1000000074" depart="24252.00" departLane="-617654357#1_0" departPos="5.10" departSpeed="0.00" departDelay="0.00" arrival="24278.00" arrivalLane="-4922743#4_0" arrivalPos="59.76" arrivalSpeed="7.94" duration="26.00" routeLength="133.18" waitingTime="3.00" waitingCount="1" stopTime="0.00" timeLoss="9.06" rerouteNo="0" devices="tripinfo_car_1000000074" vType="car" speedFactor="1.00" vaporized=""/>
    <tripinfo id="motorcycle_1000000075" depart="24255.00" departLane="4922743#4_0" departPos="2.20" departSpeed="0.00" departDelay="0.00" arrival="24282.00" arrivalLane="-1232571604_0" arrivalPos="62.71" arrivalSpeed="4.83" duration="27.00" routeLength="134.36" waitingTime="0.00" waitingCount="0" stopTime="0.00" timeLoss="3.90" rerouteNo="0" devices="tripinfo_motorcycle_1000000075" vType="motorcycle" speedFactor="0.90" vaporized=""/>
    <tripinfo id="motorcycle_1000000080" depart="24276.00" departLane="-617654357#1_0" departPos="2.20" departSpeed="0.00" departDelay="0.00" arrival="24298.00" arrivalLane="-4922743#4_0" arrivalPos="59.76" arrivalSpeed="7.03" duration="22.00" routeLength="136.08" waitingTime="0.00" waitingCount="0" stopTime="0.00" timeLoss="3.10" rerouteNo="0" devices="tripinfo_motorcycle_1000000080" vType="motorcycle" speedFactor="0.88" vaporized=""/>
    <tripinfo id="car_1000000085" depart="24315.00" departLane="4922743#4_0" departPos="5.10" departSpeed="0.00" departDelay="0.00" arrival="24329.00" arrivalLane="29251749#0_0" arrivalPos="35.37" arrivalSpeed="9.70" duration="14.00" routeLength="104.21" waitingTime="0.00" waitingCount="0" stopTime="0.00" timeLoss="2.35" rerouteNo="0" devices="tripinfo_car_1000000085" vType="car" speedFactor="1.17" vaporized=""/>
    <tripinfo id="motorcycle_1000000082" depart="24307.00" departLane="237386421_0" departPos="2.20" departSpeed="0.00" departDelay="0.00" arrival="24334.00" arrivalLane="29251749#0_0" arrivalPos="35.37" arrivalSpeed="6.62" duration="27.00" routeLength="110.01" waitingTime="1.00" waitingCount="1" stopTime="0.00" timeLoss="6.06" rerouteNo="0" devices="tripinfo_motorcycle_1000000082" vType="motorcycle" speedFactor="0.85" vaporized=""/>
    <tripinfo id="car_1000000086" depart="24318.00" departLane="4922743#4_0" departPos="5.10" departSpeed="0.00" departDelay="1.00" arrival="24337.00" arrivalLane="617654357#1_0" arrivalPos="41.50" arrivalSpeed="7.82" duration="19.00" routeLength="126.46" waitingTime="0.00" waitingCount="0" stopTime="0.00" timeLoss="3.30" rerouteNo="0" devices="tripinfo_car_1000000086" vType="car" speedFactor="1.02" vaporized=""/>
    <tripinfo id="car_1000000083" depart="24311.00" departLane="-617654357#1_0" departPos="5.10" departSpeed="0.00" departDelay="0.00" arrival="24339.00" arrivalLane="-4922743#4_0" arrivalPos="59.76" arrivalSpeed="6.81" duration="28.00" routeLength="133.18" waitingTime="3.00" waitingCount="1" stopTime="0.00" timeLoss="8.29" rerouteNo="0" devices="tripinfo_car_1000000083" vType="car" speedFactor="0.85" vaporized=""/>
    <tripinfo id="bus_1000000091" depart="24349.00" departLane="237386421_0" departPos="12.10" departSpeed="0.00" departDelay="0.00" arrival="24370.00" arrivalLane="-4922743#4_0" arrivalPos="59.76" arrivalSpeed="8.19" duration="21.00" routeLength="120.17" waitingTime="0.00" waitingCount="0" stopTime="0.00" timeLoss="3.38" rerouteNo="0" devices="tripinfo_bus_1000000091" vType="bus" speedFactor="1.00" vaporized=""/>
    <tripinfo id="car_1000000094" depart="24363.00" departLane="-617654357#1_0" departPos="5.10" departSpeed="0.00" departDelay="0.00" arrival="24379.00" arrivalLane="29251749#0_0" arrivalPos="35.37" arrivalSpeed="7.77" duration="16.00" routeLength="103.92" waitingTime="0.00" waitingCount="0" stopTime="0.00" timeLoss="2.98" rerouteNo="0" devices="tripinfo_car_1000000094" vType="car" speedFactor="1.00" vaporized=""/>
    <tripinfo id="car_1000000093" depart="24361.00" departLane="237386421_0" departPos="5.10" departSpeed="0.00" departDelay="0.00" arrival="24382.00" arrivalLane="-4922743#4_0" arrivalPos="59.76" arrivalSpeed="8.79" duration="21.00" routeLength="127.17" waitingTime="0.00" waitingCount="0" stopTime="0.00" timeLoss="3.21" rerouteNo="0" devices="tripinfo_car_1000000093" vType="car" speedFactor="1.10" vaporized=""/>
    <tripinfo id="car_1000000096" depart="24402.00" departLane="4922743#4_0" departPos="5.10" departSpeed="0.00" departDelay="0.00" arrival="24417.00" arrivalLane="29251749#0_0" arrivalPos="35.37" arrivalSpeed="7.92" duration="15.00" routeLength="104.21" waitingTime="0.00" waitingCount="0" stopTime="0.00" timeLoss="2.38" rerouteNo="0" devices="tripinfo_car_1000000096" vType="car" speedFactor="1.00" vaporized=""/>
    <tripinfo id="bus_1000000095" depart="24400.00" departLane="-617654357#1_0" departPos="12.10" departSpeed="0.00" departDelay="0.00" arrival="24424.00" arrivalLane="-4922743#4_0" arrivalPos="59.76" arrivalSpeed="7.16" duration="24.00" routeLength="126.18" waitingTime="1.00" waitingCount="1" stopTime="0.00" timeLoss="8.17" rerouteNo="0" devices="tripinfo_bus_1000000095" vType="bus" speedFactor="1.00" vaporized=""/>
    <tripinfo id="bus_1000000102" depart="24448.00" departLane="4922743#4_0" departPos="12.10" departSpeed="0.00" departDelay="0.00" arrival="24462.00" arrivalLane="29251749#0_0" arrivalPos="35.37" arrivalSpeed="8.19" duration="14.00" routeLength="97.21" waitingTime="0.00" waitingCount="0" stopTime="0.00" timeLoss="2.03" rerouteNo="0" devices="tripinfo_bus_1000000102" vType="bus" speedFactor="1.00" vaporized=""/>
    <tripinfo id="car_1000000101" depart="24442.00" departLane="-617654357#1_0" departPos="5.10" departSpeed="0.00" departDelay="0.00" arrival="24464.00" arrivalLane="-1232571604_0" arrivalPos="62.71" arrivalSpeed="6.32" duration="22.00" routeLength="136.39" waitingTime="0.00" waitingCount="0" stopTime="0.00" timeLoss="3.84" rerouteNo="0" devices="tripinfo_car_1000000101" vType="car" speedFactor="1.14" vaporized=""/>
    <tripinfo id="motorcycle_1000000099" depart="24435.00" departLane="237386421_0" departPos="2.20" departSpeed="0.00" departDelay="0.00" arrival="24472.00" arrivalLane="29251749#0_0" arrivalPos="35.37" arrivalSpeed="7.07" duration="37.00" routeLength="110.01" waitingTime="12.00" waitingCount="1" stopTime="0.00" timeLoss="17.80" rerouteNo="0" devices="tripinfo_motorcycle_1000000099" vType="motorcycle" speedFactor="0.90" vaporized=""/>
    <tripinfo id="motorcycle_1000000103" depart="24455.00" departLane="-29251749#0_0" departPos="2.20" departSpeed="0.00" departDelay="0.00" arrival="24472.00" arrivalLane="617654357#1_0" arrivalPos="41.50" arrivalSpeed="7.91" duration="17.00" routeLength="111.31" waitingTime="0.00" waitingCount="0" stopTime="0.00" timeLoss="3.87" rerouteNo="0" devices="tripinfo_motorcycle_1000000103" vType="motorcycle" speedFactor="1.02" vaporized=""/>